!
! Hittite Microwave Corporation
! 20 Alpha Road
! Chelmsford, MA 01824
! http://www.hittite.com
! Tel: 978-250-3343
! Fax: 978-250-3373
! 
! Device:      HMC902LP3E
! Description: GaAs pHEMT MMIC Low Noise Amplifier
! Frequency:   5.00 -  10.00 GHz
! Package:     LP3  - 3x3 mm Quad Flatpack No-Lead (QFN) Plastic Package: 16 pin
! Ports:       2 RF, 4 DC
!              Pin  3 = RF In  = Port 1
!              Pin  5 = Vgg1 (Optional)
!              Pin  6 = Vgg2 (Optional)
!              Pin 10 = RF Out  = Port 2
!              Pin 14 = Vdd2
!              Pin 15 = Vdd1
!
!
! Voltages:    Vdd  = Vdd1 = Vdd2 = +3.50  Volts
!              Idd  = Idd1 + Idd2 = 87.49  mA
!              Vgg1  = left opened
!              Vgg2  = left opened
!
! Data:    The device was measured on evaluation board 128395.
!          Data was collected using a calibrated network analyzer.
!          The evaluation circuit board was modeled and simulated.  This was use
!          to removed the evaluation board circuit from the measured data.
!          The reference plane is the edge of the package pin.
!
! Misc:        
!
! Date Measured:  2010-08-30
! Date:           2010-09-07 MJV
! Note: 
!   Hittite supplies this data as a sample of measured data at the package pin for
!   for this package product.  Your particular data for this product may vary.
!   Data was taken at 25 degrees C.
!   Hittite reserves the right to change this data at anytime.
!
# GHz S MA R 50

0.01	0.98660219	-0.40155733	0.00060000393	52.399143	0.00040240104	-145.93086	0.98531953	-0.54155728	
0.03	0.98542383	-0.94933889	0.00038364712	41.312299	0.00033754652	156.6423	0.98562908	-1.6293023	
0.05	0.98405859	-1.4848872	0.00016715752	30.238285	0.00027260039	99.228285	0.98575249	-2.704707	
0.07	0.98307203	-1.9831357	7.9462971e-005	3.6841511	0.00020500295	86.606151	0.98567137	-3.7566402	
0.09	0.98255535	-2.4517484	0.00012056328	-38.357556	0.00013477849	118.76844	0.98547756	-4.7927165	
0.11	0.98205255	-2.92153	0.00016165991	-80.399767	6.4555365e-005	150.93023	0.98529894	-5.8296918	
0.13	0.98183791	-3.3973028	0.00027646816	-84.111738	6.3094039e-005	156.25426	0.9850881	-6.8723347	
0.15	0.9816632	-3.8718862	0.00039127534	-87.822393	6.163343e-005	161.57961	0.98491824	-7.9134137	
0.17	0.98150628	-4.3520006	0.00056706097	-89.838023	7.1485289e-005	128.96198	0.98449625	-8.9675664	
0.19	0.98148041	-4.831064	0.00080382164	-90.152188	9.2651579e-005	58.407812	0.98393585	-10.028165	
0.21	0.98147768	-5.3091948	0.0010404962	-90.465207	0.00011381002	-12.145207	0.98339992	-11.08728	
0.23	0.9813792	-5.79631	0.0014127198	-95.054671	9.4591172e-005	57.913329	0.9826405	-12.158739	
0.25	0.98126575	-6.2839247	0.0017846885	-99.644132	7.5377419e-005	127.97187	0.98186803	-13.230012	
0.27	0.98121216	-6.7727365	0.0022173374	-103.1545	6.6927575e-005	157.3235	0.98107249	-14.291796	
0.29	0.98121408	-7.2629332	0.0027105831	-105.58593	6.9232363e-005	145.96807	0.98024957	-15.344243	
0.31	0.98118905	-7.7537463	0.0032033314	-108.01727	7.1531425e-005	134.61273	0.97940241	-16.396471	
0.33	0.9812225	-8.2518548	0.0039667657	-110.6752	8.7642838e-005	108.2828	0.97823839	-17.455141	
0.35	0.9812666	-8.7491448	0.0047295231	-113.33192	0.0001037399	81.954082	0.97708737	-18.512092	
0.37	0.98131333	-9.24219	0.0056972865	-116.31568	0.00010707687	95.318324	0.97571305	-19.56783	
0.39	0.98136866	-9.7307249	0.0068697305	-119.62624	9.7671096e-005	148.37576	0.97412179	-20.62205	
0.41	0.98143192	-10.218386	0.0080409253	-122.93547	8.8272622e-005	-158.56547	0.97254165	-21.674359	
0.43	0.98139206	-10.709223	0.010015634	-130.04337	0.00010126066	158.95863	0.97070735	-22.697079	
0.45	0.9813419	-11.199595	0.011987916	-137.15004	0.00011423146	116.48396	0.96886746	-23.718254	
0.47	0.98120661	-11.701006	0.01196292	-148.48757	0.00010809103	86.738426	0.96792412	-24.727466	
0.49	0.98098651	-12.213399	0.0099440238	-164.05597	8.2872097e-005	69.722028	0.96787558	-25.72466	
0.51	0.98076239	-12.725004	0.0079272719	-179.62293	5.768113e-005	52.707069	0.96782488	-26.719943	
0.53	0.98075427	-13.235628	0.008414205	-160.25458	5.0355901e-005	111.44342	0.96615605	-27.867131	
0.55	0.98075155	-13.745139	0.0089003765	-140.88451	4.3039461e-005	170.18149	0.96449665	-29.011767	
0.57	0.98072388	-14.247659	0.010231879	-130.45084	5.3084552e-005	170.89116	0.96236057	-30.116551	
0.59	0.98066197	-14.743383	0.012406894	-128.95358	8.0455626e-005	113.57242	0.95974076	-31.18175	
0.61	0.9806044	-15.237923	0.014578775	-127.45457	0.00010778816	56.255427	0.95713066	-32.244402	
0.63	0.98032142	-15.759077	0.016825334	-128.33768	0.00011937727	69.012318	0.95460351	-33.284962	
0.65	0.98004328	-16.278936	0.019068536	-129.219	0.00013094875	81.771004	0.95208581	-34.322913	
0.67	0.97988778	-16.793518	0.021421707	-130.27658	0.00014016621	82.897417	0.94956413	-35.360176	
0.69	0.97985466	-17.302802	0.023884568	-131.51044	0.00014703463	72.391559	0.94703833	-36.396708	
0.71	0.97982192	-17.810811	0.02634354	-132.74245	0.00015389132	61.887548	0.9445183	-37.430604	
0.73	0.9796017	-18.337341	0.02920198	-133.98405	0.00015551015	59.10195	0.94184689	-38.469813	
0.75	0.97938534	-18.862411	0.032055925	-135.22375	0.00015712575	56.31825	0.93918392	-39.506226	
0.77	0.97921776	-19.386084	0.035071483	-136.5596	0.00015160965	54.432405	0.93638923	-40.536003	
0.79	0.9790989	-19.908319	0.038248302	-137.99159	0.00013897849	53.444411	0.93346291	-41.559122	
0.81	0.9789838	-20.429003	0.041420185	-139.42169	0.00012636652	52.458309	0.9305447	-42.579385	
0.83	0.97870121	-20.955958	0.045059968	-140.85352	9.0502569e-005	69.422479	0.92746896	-43.604576	
0.85	0.97841943	-21.481381	0.04869408	-142.28342	5.4693411e-005	86.388581	0.92439875	-44.626952	
0.87	0.9780741	-22.013145	0.052577951	-143.76521	5.3902259e-005	76.476788	0.92132853	-45.644654	
0.89	0.97767151	-22.551038	0.056711366	-145.29898	8.8048771e-005	39.687022	0.91826215	-46.657522	
0.91	0.97727263	-23.087218	0.060838687	-146.83084	0.00012214335	2.8991582	0.91520224	-47.667492	
0.93	0.97708984	-23.62566	0.065535068	-148.44483	0.00014240538	12.265172	0.91188007	-48.674647	
0.95	0.97691031	-24.162324	0.070224773	-150.05694	0.0001626377	21.633058	0.90856379	-49.678896	
0.97	0.97672143	-24.703015	0.075164605	-151.73302	0.00016498494	26.162977	0.90519807	-50.68411	
0.99	0.97652065	-25.247773	0.080354032	-153.47304	0.00014948693	25.854961	0.90178104	-51.690369	
1.01	0.97631888	-25.790792	0.085536336	-155.21115	0.0001340126	25.548849	0.89836622	-52.69387	
1.03	0.97595593	-26.343579	0.091263998	-157.06321	9.1730273e-005	39.43279	0.89497113	-53.690672	
1.05	0.97559609	-26.894451	0.096984602	-158.91347	4.9509325e-005	53.318529	0.89157931	-54.684644	
1.07	0.97521651	-27.443445	0.10296336	-160.81396	5.1421438e-005	54.192041	0.88817985	-55.67385	
1.09	0.97481718	-27.99053	0.10920007	-162.7647	9.7374875e-005	42.053301	0.88477208	-56.658308	
1.11	0.97442089	-28.535642	0.11543004	-164.71372	0.00014326789	29.916275	0.88136573	-57.640002	
1.13	0.9740085	-29.102065	0.1220355	-166.78865	0.00012633525	22.55335	0.87776495	-58.615412	
1.15	0.97359349	-29.666698	0.12863396	-168.86186	0.00010942608	15.192139	0.87416219	-59.588411	
1.17	0.97320971	-30.23311	0.13537566	-170.98532	0.00011474578	-0.74131992	0.87056672	-60.560675	
1.19	0.97285706	-30.801283	0.14226083	-173.15906	0.00014225328	-25.247057	0.86697789	-61.532245	
1.21	0.97250676	-31.367386	0.14914068	-175.33121	0.00016973098	-49.751212	0.86338745	-62.50127	
1.23	0.97205012	-31.942898	0.15613238	-177.64544	0.00013932662	-1.069436	0.85992382	-63.463783	
1.25	0.97159589	-32.516301	0.16311973	-179.95813	0.00010895926	47.613865	0.85645715	-64.423855	
1.27	0.97105144	-33.091399	0.17004515	177.68663	8.4968382e-005	57.210632	0.85289905	-65.375823	
1.29	0.97041669	-33.668181	0.17690946	175.2888	6.7342182e-005	27.720805	0.84924865	-66.319759	
1.31	0.9697842	-34.242825	0.18377157	172.89235	4.9734566e-005	-1.7676549	0.84559278	-67.261432	
1.33	0.96925866	-34.834306	0.1901255	170.38951	5.0460338e-005	-3.7144905	0.84200352	-68.193315	
1.35	0.96873497	-35.423609	0.19647886	167.88797	5.11868e-005	-5.6600288	0.83840724	-69.123069	
1.37	0.96823802	-36.016385	0.20244102	165.36193	5.7568525e-005	-21.856075	0.83473019	-70.052483	
1.39	0.96776759	-36.612614	0.20801314	162.81132	6.9599325e-005	-52.302678	0.83097145	-70.98162	
1.41	0.96729845	-37.20665	0.21358727	160.26187	8.1623528e-005	-82.748127	0.82720315	-71.908813	
1.43	0.96665165	-37.802307	0.21797378	157.72551	0.00011085855	-82.032485	0.82353228	-72.822778	
1.45	0.96600622	-38.395785	0.2223642	155.19021	0.00014007943	-81.315795	0.81985042	-73.734956	
1.47	0.96536549	-38.996526	0.22605104	152.65616	0.0001318416	-88.947841	0.81614924	-74.645441	
1.49	0.96472926	-39.604507	0.22903535	150.12333	8.6172857e-005	-104.92867	0.81242781	-75.554303	
1.51	0.964094	-40.210305	0.23202573	147.5914	4.0525758e-005	-120.9086	0.80869295	-76.461597	
1.53	0.96327735	-40.828861	0.23334523	145.18495	2.7104071e-005	-133.37905	0.80491632	-77.363234	
1.55	0.96246148	-41.445238	0.23467219	142.77927	1.3687058e-005	-145.84873	0.80112458	-78.263474	
1.57	0.9617083	-42.066961	0.23506969	140.45655	2.6284941e-005	-135.13745	0.79742547	-79.156794	
1.59	0.96101765	-42.694034	0.23453812	138.21674	6.4891274e-005	-101.24526	0.79381862	-80.043287	
1.61	0.96032708	-43.318966	0.23401475	135.97758	0.00010349592	-67.352423	0.79019465	-80.928658	
1.63	0.95965554	-43.956787	0.23192229	133.98328	0.00012020416	-83.010722	0.78657312	-81.801743	
1.65	0.95898327	-44.592526	0.22983801	131.98952	0.00013691716	-98.668483	0.78293318	-82.673926	
1.67	0.95825288	-45.233543	0.22695234	130.14881	0.0001576482	-99.639193	0.77933466	-83.548842	
1.69	0.95746429	-45.879851	0.22326509	128.46108	0.00018240056	-85.922919	0.77577675	-84.426613	
1.71	0.95667452	-46.524138	0.21958529	126.77371	0.00020716588	-72.206285	0.77219822	-85.303774	
1.73	0.95584128	-47.177641	0.21463588	125.51478	0.00018765197	-78.189216	0.76858421	-86.169101	
1.75	0.95500635	-47.829198	0.20969264	124.25609	0.00016813744	-84.171911	0.76494847	-87.034018	
1.77	0.95415738	-48.490023	0.20431459	123.25007	0.00016268476	-93.347934	0.76135918	-87.898707	
1.79	0.95329401	-49.16014	0.19850092	122.49667	0.00017130417	-105.71733	0.75781581	-88.763294	
1.81	0.95242807	-49.828423	0.19269134	121.74333	0.00017993564	-118.08667	0.75424906	-89.627801	
1.83	0.95155943	-50.506096	0.18636488	121.56681	0.00022732463	-109.50319	0.75063793	-90.492226	
1.85	0.9506855	-51.182166	0.18004064	121.39027	0.00027475886	-100.91973	0.74700255	-91.356967	
1.87	0.94965045	-51.871386	0.17360488	121.57399	0.00027411006	-101.16201	0.74336012	-92.216297	
1.89	0.94845395	-52.573793	0.16705667	122.11791	0.00022531318	-110.23009	0.73971041	-93.070319	
1.91	0.94725351	-53.274612	0.16050847	122.66154	0.0001764749	-119.29846	0.73603505	-93.924825	
1.93	0.94613537	-53.98875	0.15418493	124.17769	0.00022461063	-122.65031	0.73249065	-94.776399	
1.95	0.9450124	-54.701436	0.14786018	125.69344	0.00027281285	-126.00256	0.72892004	-95.628719	
1.97	0.94390575	-55.423597	0.14203324	127.84344	0.00030004901	-126.11856	0.72539708	-96.475985	
1.99	0.94281488	-56.15532	0.13670451	130.62762	0.00030628128	-122.99838	0.72192169	-97.318352	
2.01	0.94171804	-56.8858	0.13137384	133.41121	0.00031253518	-119.87879	0.7184193	-98.161826	
2.03	0.94047583	-57.626219	0.12817025	137.54635	0.00030583404	-117.61565	0.71486119	-99.006468	
2.05	0.93922681	-58.365563	0.12496677	141.68073	0.00029913469	-115.35327	0.71127532	-99.85246	
2.07	0.93791181	-59.118721	0.12360926	146.34874	0.00030095055	-114.69726	0.70763127	-100.70372	
2.09	0.93653022	-59.885785	0.12410245	151.55026	0.00031130449	-115.64774	0.70392851	-101.5604	
2.11	0.93514042	-60.652039	0.12460167	156.75078	0.00032169095	-116.59922	0.70019682	-102.4188	
2.13	0.93357504	-61.431917	0.12970559	161.89872	0.0003040579	-122.81928	0.69643296	-103.26305	
2.15	0.93200021	-62.211196	0.13482542	167.04549	0.00028640048	-129.04051	0.6926399	-104.10925	
2.17	0.93039575	-63.00479	0.14214914	171.67162	0.00027224353	-131.58638	0.68889057	-104.94994	
2.19	0.92876093	-63.812828	0.15168502	175.77706	0.00026159695	-130.45694	0.68518541	-105.78521	
2.21	0.92711498	-64.620621	0.16124928	179.88109	0.00025093589	-129.32891	0.68145144	-106.62279	
2.23	0.92550157	-65.446834	0.17490279	-177.1959	0.00028963306	-117.1259	0.67758825	-107.46244	
2.25	0.92387603	-66.273049	0.18859751	-174.27446	0.00032843899	-104.92446	0.67369565	-108.30462	
2.27	0.92213754	-67.112126	0.20404723	-171.88844	0.00034061934	-100.37244	0.66969686	-109.14506	
2.29	0.92028503	-67.964269	0.22126107	-170.03798	0.0003260694	-103.46998	0.6655918	-109.98389	
2.31	0.91841822	-68.816846	0.23853124	-168.18938	0.00031149084	-106.56938	0.66145707	-110.8256	
2.33	0.91638879	-69.703483	0.25914551	-167.12561	0.00035788181	-108.47361	0.6574306	-111.63898	
2.35	0.91434338	-70.590895	0.27983026	-166.06385	0.00040442323	-110.37985	0.65337591	-112.45537	
2.37	0.9122626	-71.497901	0.3019916	-165.31768	0.00045223261	-112.42968	0.64927623	-113.27081	
2.39	0.91014545	-72.424726	0.32563929	-164.88723	0.00050132212	-114.62323	0.64513183	-114.08541	
2.41	0.9080102	-73.352855	0.34937442	-164.45903	0.00055058719	-116.81903	0.64095982	-114.90333	
2.43	0.9057232	-74.293201	0.37597962	-164.42063	0.00053232825	-119.68863	0.6368488	-115.71277	
2.45	0.9034162	-75.235218	0.40268711	-164.38468	0.00051402462	-122.56068	0.63271092	-116.52579	
2.47	0.9008975	-76.203398	0.43091096	-164.48099	0.00052495404	-121.39499	0.62857285	-117.33849	
2.49	0.89816493	-77.198001	0.46066322	-164.70974	0.0005652728	-116.19174	0.62443511	-118.15092	
2.51	0.89540861	-78.194905	0.49053809	-164.94128	0.00060575602	-110.99128	0.62027178	-118.96723	
2.53	0.89245101	-79.217158	0.52356962	-165.40757	0.00058027912	-108.39357	0.61603409	-119.76708	
2.55	0.88946742	-80.242162	0.55674057	-165.87682	0.00055472058	-105.79882	0.61177204	-120.57094	
2.57	0.8862896	-81.294492	0.59179615	-166.40681	0.0005349468	-104.67681	0.60751104	-121.37279	
2.59	0.88291498	-82.374538	0.6287515	-166.99775	0.00052098842	-105.02775	0.60325198	-122.17274	
2.61	0.87951012	-83.458127	0.66587081	-167.592	0.00050698484	-105.382	0.59897041	-122.97703	
2.63	0.8759004	-84.572047	0.70745111	-168.33792	0.00054754971	-102.43592	0.59452723	-123.76815	
2.65	0.87225812	-85.690015	0.7492182	-169.08736	0.00058829424	-99.493355	0.5900625	-124.56367	
2.67	0.86846822	-86.841034	0.79324158	-169.92026	0.00062938913	-96.19426	0.58556204	-125.35944	
2.69	0.86452828	-88.025547	0.8395394	-170.83682	0.00067084022	-92.538818	0.58102645	-126.15551	
2.71	0.86055172	-89.215034	0.88605113	-171.75721	0.00071248181	-88.887206	0.57647114	-126.95627	
2.73	0.85587819	-90.447661	0.93683645	-172.75455	0.00078151788	-88.788552	0.57188638	-127.71942	
2.75	0.85116283	-91.685935	0.98785634	-173.75597	0.00085086966	-88.693969	0.56728434	-128.48724	
2.77	0.84633575	-92.955525	1.0417434	-174.80766	0.0009094512	-89.00566	0.56261772	-129.25961	
2.79	0.84139506	-94.256932	1.0985184	-175.90978	0.0009571903	-89.723781	0.55788723	-130.03664	
2.81	0.83640968	-95.565047	1.1555545	-177.01624	0.001005149	-90.446241	0.55314186	-130.81869	
2.83	0.8307935	-96.934522	1.2181436	-178.22442	0.0010899429	-89.718424	0.54844247	-131.58871	
2.85	0.82512758	-98.311485	1.2810174	-179.43718	0.0011751273	-88.995184	0.54373027	-132.36381	
2.87	0.81914721	-99.721708	1.3471749	179.30096	0.0012386941	-88.803044	0.53896964	-133.11592	
2.89	0.81284878	-101.16577	1.4166326	177.98987	0.0012804838	-89.142125	0.53416164	-133.84489	
2.91	0.80649627	-102.61847	1.4863898	176.67406	0.0013224453	-89.485943	0.52934354	-134.57896	
2.93	0.7992806	-104.13491	1.5621911	175.25411	0.0014087774	-88.805888	0.52444316	-135.32593	
2.95	0.79200566	-105.66079	1.6383028	173.82926	0.0014954742	-88.130737	0.51953475	-136.07821	
2.97	0.78437435	-107.23046	1.7181268	172.36495	0.0016164421	-87.775052	0.51468142	-136.80739	
2.99	0.77638436	-108.84458	1.8016751	170.86109	0.0017719051	-87.738914	0.50988505	-137.51328	
3.01	0.76833442	-110.46945	1.8855297	169.35231	0.001928006	-87.707691	0.50508489	-138.2244	
3.03	0.75960507	-112.17876	1.9764951	167.71185	0.0020770458	-88.252153	0.50021652	-138.9185	
3.05	0.75081455	-113.90005	2.0677617	166.06642	0.0022266426	-88.801578	0.49534687	-139.618	
3.07	0.74145788	-115.66393	2.1624914	164.38033	0.0023528812	-89.789671	0.49042616	-140.3006	
3.09	0.73153211	-117.47105	2.260672	162.65363	0.0024555673	-91.216373	0.48545474	-140.96627	
3.11	0.72154696	-119.29148	2.3590983	160.92229	0.0025585036	-92.647713	0.48048428	-141.63756	
3.13	0.71043113	-121.21976	2.4638039	159.09018	0.0026688267	-93.003816	0.47568828	-142.28334	
3.15	0.6992579	-123.16264	2.5687063	157.25366	0.0027793508	-93.364341	0.47089523	-142.93466	
3.17	0.68765215	-125.14994	2.6770786	155.37922	0.0029510431	-94.654777	0.46609905	-143.58052	
3.19	0.67561841	-127.18268	2.7888892	153.4671	0.0031841704	-96.874901	0.46130279	-144.22142	
3.21	0.66354446	-129.23183	2.9007893	151.55135	0.0034177571	-99.098652	0.4565149	-144.86869	
3.23	0.65027014	-131.38841	3.0190069	149.55282	0.0035389119	-99.62118	0.45203712	-145.45851	
3.25	0.63696622	-133.56268	3.1372237	147.55123	0.0036600143	-100.14677	0.44756626	-146.05413	
3.27	0.62306368	-135.79356	3.2573916	145.50845	0.0038367557	-101.25555	0.44303073	-146.64412	
3.29	0.608572	-138.08242	3.3794403	143.42496	0.0040692451	-102.94704	0.43843167	-147.2291	
3.31	0.59408164	-140.39165	3.5013134	141.3397	0.0043017086	-104.6403	0.43384163	-147.82102	
3.33	0.5784566	-142.83021	3.6267142	139.18488	0.0045103863	-105.86712	0.42964028	-148.37564	
3.35	0.56286019	-145.29167	3.7518044	137.02936	0.0047187636	-107.09464	0.42544791	-148.93703	
3.37	0.54686039	-147.82239	3.8782529	134.83973	0.0049380378	-108.87027	0.42129462	-149.49323	
3.39	0.53047385	-150.42478	4.0059826	132.61666	0.0051680996	-111.19334	0.41717703	-150.04482	
3.41	0.51416412	-153.05496	4.1332163	130.39461	0.0053975681	-113.51539	0.41306303	-150.60427	
3.43	0.49707398	-155.80807	4.2615251	128.11923	0.0056197769	-115.32277	0.40924839	-151.13874	
3.45	0.48010282	-158.59328	4.3892133	125.84623	0.0058411717	-117.12777	0.40543672	-151.68081	
3.47	0.46277287	-161.47312	4.5158972	123.5581	0.0060868427	-118.8599	0.40166656	-152.21697	
3.49	0.44511312	-164.45176	4.6415038	121.25576	0.0063566379	-120.51824	0.39793699	-152.74733	
3.51	0.4276421	-167.47193	4.7663427	118.95787	0.0066252957	-122.17213	0.39420718	-153.28564	
3.53	0.40987528	-170.66851	4.8892941	116.63401	0.0068677981	-124.09999	0.39083565	-153.81554	
3.55	0.39235041	-173.91615	5.0114158	114.31598	0.0071090344	-126.02202	0.38745914	-154.35292	
3.57	0.37496148	-177.28879	5.1312735	111.99247	0.007356049	-128.00353	0.3842234	-154.90394	
3.59	0.35774152	179.20664	5.2488537	109.6642	0.0076087699	-130.0438	0.38112665	-155.46836	
3.61	0.34083955	175.63348	5.3656008	107.34339	0.0078601052	-132.07661	0.37802079	-156.03971	
3.63	0.32416548	171.79217	5.4768846	105.01028	0.0081233245	-134.22572	0.37483417	-156.60902	
3.65	0.30787435	167.86576	5.5873613	102.68586	0.0083850889	-136.36614	0.37163505	-157.18457	
3.67	0.29205784	163.71987	5.6941061	100.37604	0.0086239916	-138.22996	0.3685694	-157.76145	
3.69	0.27676418	159.34655	5.7971576	98.081504	0.0088401462	-139.8165	0.3656427	-158.3391	
3.71	0.26194408	154.86347	5.8995544	95.796955	0.0090551201	-141.39305	0.36271064	-158.92163	
3.73	0.24842628	149.95787	5.9956817	93.527894	0.0093242052	-143.64611	0.35973421	-159.5183	
3.75	0.23544344	144.93553	6.0912806	91.269529	0.0095920759	-145.88847	0.3567452	-160.11843	
3.77	0.22360067	139.61427	6.1820302	89.031696	0.0098338354	-147.8563	0.35381414	-160.72932	
3.79	0.21292681	134.01623	6.2680146	86.814858	0.010049704	-149.54914	0.35094934	-161.35086	
3.81	0.20281408	128.32793	6.3537677	84.60908	0.010264938	-151.23092	0.34808498	-161.97488	
3.83	0.19491395	122.07191	6.4320493	82.428627	0.010475669	-153.28737	0.34519179	-162.60388	
3.85	0.18753341	115.81022	6.5103081	80.259797	0.010686079	-155.3322	0.342302	-163.2336	
3.87	0.18182892	109.30362	6.5845343	78.120017	0.01089345	-157.30998	0.33938501	-163.87344	
3.89	0.17769212	102.66074	6.6548221	76.00985	0.01109792	-159.22015	0.33644529	-164.52335	
3.91	0.17377039	96.183903	6.7254728	73.910999	0.011302716	-161.119	0.33351927	-165.17227	
3.93	0.17328387	89.451626	6.788155	71.853462	0.011513345	-162.92454	0.33069518	-165.82056	
3.95	0.17262603	83.046768	6.8514179	69.807109	0.011724636	-164.71889	0.32788991	-166.46794	
3.97	0.17355782	76.841014	6.9118408	67.792417	0.011913689	-166.52958	0.32514932	-167.16878	
3.99	0.17583868	70.87636	6.9694056	65.809795	0.012080556	-168.3562	0.32248229	-167.92326	
4.01	0.17743585	65.256361	7.0278182	63.836461	0.012248715	-170.17354	0.31984986	-168.6764	
4.03	0.18186852	59.892412	7.0765148	61.90788	0.012434114	-171.67812	0.31695928	-169.28928	
4.05	0.185398	54.787749	7.126081	59.988287	0.012620789	-173.17371	0.31410065	-169.90075	
4.07	0.18972589	50.081113	7.1740907	58.091387	0.012781494	-174.77061	0.3112321	-170.52338	
4.09	0.19490216	45.65974	7.2203254	56.217971	0.01291593	-176.46803	0.30836038	-171.15706	
4.11	0.1991928	41.309416	7.2673927	54.352421	0.013051747	-178.15758	0.30553338	-171.78882	
4.13	0.20533525	37.654542	7.3081707	52.528177	0.013202823	-179.56982	0.30253363	-172.41277	
4.15	0.21077548	33.947833	7.3495962	50.711793	0.013354921	179.02579	0.29957906	-173.03553	
4.17	0.21635914	30.561959	7.3890485	48.929245	0.013529079	177.52524	0.29649437	-173.66856	
4.19	0.22224078	27.468513	7.4263628	47.180236	0.013724942	175.92824	0.29328312	-174.31163	
4.21	0.22758075	24.286854	7.4643424	45.437667	0.013921837	174.33767	0.29012492	-174.95296	
4.23	0.23327583	21.671734	7.4990302	43.731538	0.014063206	172.83154	0.28718452	-175.6308	
4.25	0.23857028	18.976201	7.534296	42.030516	0.014205559	171.33052	0.28430153	-176.30763	
4.27	0.24373557	16.463178	7.5676715	40.353456	0.014356396	169.88346	0.28149867	-176.96646	
4.29	0.24885272	14.143344	7.5990632	38.699708	0.014515532	168.48971	0.2787747	-177.60722	
4.31	0.25366499	11.760604	7.6310324	37.049528	0.014675682	167.09953	0.27610855	-178.24678	
4.33	0.25847071	9.7376065	7.6595052	35.446958	0.014780269	165.74896	0.27351751	-178.85147	
4.35	0.26304609	7.6663408	7.6884816	33.847054	0.014885792	164.40105	0.27098414	-179.45591	
4.37	0.26742083	5.7045768	7.7164984	32.268536	0.015007429	163.03254	0.26844342	179.94707	
4.39	0.27163231	3.8599814	7.743493	30.711036	0.015145053	161.64304	0.26589569	179.35757	
4.41	0.27566463	1.9781436	7.7709626	29.155279	0.01528357	160.25528	0.26340775	178.76834	
4.43	0.27959701	0.30283774	7.7974784	27.637525	0.015419569	158.98952	0.26086444	178.23574	
4.45	0.28338607	-1.4026785	7.8244234	26.121039	0.015556395	157.72504	0.25837766	177.70286	
4.47	0.28698855	-3.0273243	7.8501195	24.623251	0.015685419	156.38525	0.25594414	177.17046	
4.49	0.29042309	-4.5664155	7.874518	23.143966	0.015806553	154.96997	0.25356546	176.63806	
4.51	0.29374357	-6.1294933	7.8993063	21.665399	0.015928466	153.5554	0.25124598	176.10445	
4.53	0.29667869	-7.5021807	7.9223111	20.234922	0.016052081	152.45292	0.24901817	175.60183	
4.55	0.29952493	-8.8945871	7.9456464	18.804854	0.016176372	151.35085	0.24684176	175.09789	
4.57	0.30220497	-10.251589	7.9692242	17.379895	0.016307569	150.1279	0.24474314	174.60857	
4.59	0.30472441	-11.571285	7.9930219	15.959921	0.016445636	148.78392	0.24272504	174.1336	
4.61	0.30716897	-12.909413	8.0171192	14.540213	0.016584346	147.44021	0.24075943	173.65852	
4.63	0.30939129	-14.119612	8.0387649	13.174352	0.016704647	146.29435	0.23878938	173.2288	
4.65	0.31155194	-15.344729	8.0606811	11.808396	0.01682554	145.1484	0.23686657	172.7964	
4.67	0.31352483	-16.531368	8.0832247	10.44679	0.016942246	144.01879	0.23502284	172.36142	
4.69	0.3153158	-17.678221	8.1063699	9.0894766	0.01705471	142.90548	0.23325619	171.92369	
4.71	0.31705636	-18.83847	8.1297543	7.7318676	0.017167712	141.79187	0.23153361	171.48276	
4.73	0.31848855	-19.918102	8.1520021	6.4033791	0.017266284	140.59138	0.23004262	171.07669	
4.75	0.31987661	-21.009586	8.1744579	5.0744705	0.017365328	139.39047	0.2285928	170.66679	
4.77	0.32109841	-22.063917	8.1963689	3.764295	0.017481545	138.19229	0.22712326	170.27386	
4.79	0.32215669	-23.080177	8.2177135	2.4728383	0.017614909	136.99684	0.22563343	169.89761	
4.81	0.32317794	-24.10716	8.2392357	1.1808589	0.017748715	135.80086	0.22418241	169.5167	
4.83	0.32419171	-25.097361	8.2614616	-0.097021585	0.017894967	134.80698	0.22300013	169.13844	
4.85	0.32517564	-26.097952	8.2838516	-1.3754634	0.01804165	133.81254	0.221852	168.75671	
4.87	0.32588151	-27.067294	8.3060107	-2.645857	0.018151782	132.76014	0.22073497	168.37985	
4.89	0.32631196	-28.004414	8.3279135	-3.9082135	0.018225266	131.64979	0.21964474	168.0067	
4.91	0.32671949	-28.950642	8.3499424	-5.1711994	0.018299047	130.5388	0.21858088	167.62821	
4.93	0.32694067	-29.844702	8.3709626	-6.408695	0.018410916	129.45331	0.21765501	167.24742	
4.95	0.32714174	-30.747246	8.392088	-7.6468157	0.018523071	128.36718	0.21675439	166.86181	
4.97	0.32728235	-31.629871	8.4142339	-8.8760919	0.018621085	127.38191	0.21596856	166.50193	
4.99	0.32736654	-32.492237	8.4373903	-10.096518	0.018704914	126.49748	0.21529289	166.16841	
5.01	0.32743915	-33.362736	8.4606344	-11.317583	0.018788968	125.61242	0.21463429	165.83088	
5.03	0.32720465	-34.226062	8.482172	-12.529171	0.018936388	124.48083	0.21401645	165.45085	
5.05	0.32695695	-35.096958	8.5037773	-13.741415	0.019084049	123.34858	0.21341775	165.06574	
5.07	0.32660589	-35.941687	8.5253229	-14.941252	0.019220147	122.23875	0.21298266	164.70647	
5.09	0.32615392	-36.759668	8.546795	-16.128657	0.019344636	121.15134	0.21270709	164.37343	
5.11	0.32569525	-37.584386	8.56831	-17.316694	0.019469293	120.06331	0.21244244	164.03576	
5.13	0.32503831	-38.376605	8.5914162	-18.498546	0.019536874	119.07745	0.21214208	163.66647	
5.15	0.32438082	-39.175282	8.6145523	-19.68096	0.019604537	118.09104	0.21184675	163.29345	
5.17	0.32358283	-39.967389	8.6368069	-20.853025	0.019691491	117.07898	0.21166058	162.92404	
5.19	0.32264407	-40.752688	8.6581669	-22.014731	0.019797735	116.04127	0.21158296	162.55841	
5.21	0.32170748	-41.544036	8.6795344	-23.176975	0.019904049	115.00302	0.21150688	162.18933	
5.23	0.32061127	-42.285941	8.7022976	-24.341171	0.019957356	114.03483	0.21149521	161.78446	
5.25	0.31952232	-43.033341	8.7250569	-25.505802	0.020010656	113.0662	0.21148022	161.37758	
5.27	0.31833034	-43.785722	8.7471419	-26.657846	0.020103632	112.09815	0.21158088	160.97765	
5.29	0.31703464	-44.543106	8.7685394	-27.797276	0.020236306	111.13072	0.21179748	160.58501	
5.31	0.31575558	-45.306647	8.78989	-28.936825	0.020368941	110.16317	0.21200312	160.19347	
5.33	0.31442337	-46.050316	8.8132178	-30.073405	0.020456284	109.31859	0.21226674	159.81384	
5.35	0.3131046	-46.799383	8.8365196	-31.21034	0.020543593	108.47366	0.21252159	159.43381	
5.37	0.31162506	-47.533643	8.8588135	-32.338383	0.02065971	107.58362	0.21276471	159.0374	
5.39	0.30998348	-48.252512	8.8800882	-33.457475	0.020804641	106.64853	0.2129962	158.6243	
5.41	0.30835669	-48.975902	8.9013188	-34.576807	0.020949534	105.71319	0.2132165	158.21059	
5.43	0.30661774	-49.689775	8.9248161	-35.695026	0.021025925	104.64297	0.21383628	157.74153	
5.45	0.30489976	-50.407561	8.9482583	-36.813398	0.0211022	103.5726	0.21443773	157.27391	
5.47	0.30305935	-51.12309	8.970614	-37.928366	0.021191991	102.60363	0.21498929	156.83173	
5.49	0.30109591	-51.836751	8.9918777	-39.039913	0.0212953	101.73609	0.21549208	156.415	
5.51	0.29915528	-52.554708	9.0130778	-40.151557	0.02139849	100.86844	0.21597572	155.99986	
5.53	0.29719547	-53.235432	9.0361804	-41.247921	0.021495277	99.892079	0.21657671	155.53863	
5.55	0.29526124	-53.91945	9.0592169	-42.344281	0.021591928	98.915719	0.21715496	155.07975	
5.57	0.29322702	-54.617153	9.0813747	-43.43976	0.021671559	98.03424	0.21777896	154.60529	
5.59	0.29109336	-55.329269	9.1026487	-44.53434	0.021734148	97.24766	0.21844997	154.11652	
5.61	0.28898946	-56.045604	9.1238482	-45.628834	0.021796565	96.461166	0.21909716	153.63222	
5.63	0.28661469	-56.692358	9.1474842	-46.708035	0.021885817	95.481965	0.2197854	153.11439	
5.65	0.28427079	-57.341638	9.1710417	-47.787016	0.021974891	94.502984	0.22044559	152.60075	
5.67	0.2818881	-58.012329	9.1941541	-48.868774	0.022073824	93.527226	0.22118809	152.07854	
5.69	0.27946776	-58.704679	9.2168145	-49.953287	0.022182604	92.554713	0.22201195	151.54815	
5.71	0.27708248	-59.399763	9.2393891	-51.037508	0.02229119	91.582492	0.22280422	151.02266	
5.73	0.27452643	-60.077383	9.260094	-52.113865	0.022363983	90.758135	0.2234986	150.49451	
5.75	0.27200611	-60.758088	9.2807157	-53.189872	0.022436579	89.934128	0.22416228	149.97197	
5.77	0.26932934	-61.414853	9.3022284	-54.268514	0.022516349	89.011486	0.22491265	149.41074	
5.79	0.26649773	-62.046594	9.3246273	-55.34968	0.022603278	87.99032	0.22574618	148.81146	
5.81	0.26370569	-62.679864	9.34694	-56.43032	0.022689998	86.96968	0.22654289	148.2186	
5.83	0.26092794	-63.353399	9.3698574	-57.49122	0.022793063	86.15678	0.22736621	147.67035	
5.85	0.25818852	-64.029403	9.3926887	-58.551612	0.022895918	85.344388	0.22815517	147.12802	
5.87	0.25532807	-64.68449	9.4149373	-59.615907	0.022974789	84.442093	0.22893355	146.54411	
5.89	0.25234855	-65.318039	9.4366054	-60.684027	0.023029682	83.449973	0.22969894	145.91955	
5.91	0.24941277	-65.953116	9.458195	-61.751478	0.023084383	82.458522	0.23042438	145.30233	
5.93	0.24647546	-66.574008	9.4792303	-62.802161	0.023196865	81.655839	0.23115108	144.69739	
5.95	0.24357828	-67.196261	9.5001931	-63.852162	0.023309157	80.853838	0.23184001	144.09894	
5.97	0.24054859	-67.814888	9.5204198	-64.907937	0.023364583	79.978063	0.23244597	143.46858	
5.99	0.23739597	-68.430409	9.5399124	-65.969206	0.023363171	79.028794	0.2329628	142.80906	