!
! Hittite Microwave Corporation
! 20 Alpha Road
! Chelmsford, MA 01824
! http://www.hittite.com
! Tel: 978-250-3343
! Fax: 978-250-3373
! 
! Device:      HMC902LP3E
! Description: GaAs pHEMT MMIC Low Noise Amplifier
! Frequency:   5.00 -  10.00 GHz
! Package:     LP3  - 3x3 mm Quad Flatpack No-Lead (QFN) Plastic Package: 16 pin
! Ports:       2 RF, 4 DC
!              Pin  3 = RF In  = Port 1
!              Pin  5 = Vgg1 (Optional)
!              Pin  6 = Vgg2 (Optional)
!              Pin 10 = RF Out  = Port 2
!              Pin 14 = Vdd2
!              Pin 15 = Vdd1
!
!
! Voltages:    Vdd  = Vdd1 = Vdd2 = +3.50  Volts
!              Idd  = Idd1 + Idd2 = 60.30  mA
!              Vgg  = Vgg1 = Vgg2 = -0.26  Volts
!              Igg  = Igg1 + Igg2 = -0.07  mA
!
! Data:    The device was measured on evaluation board 128395.
!          Data was collected using a calibrated network analyzer.
!          The evaluation circuit board was modeled and simulated.  This was use
!          to removed the evaluation board circuit from the measured data.
!          The reference plane is the edge of the package pin.
!
! Misc:        
!
! Date Measured:  2010-08-30
! Date:           2010-09-07 MJV
! Note: 
!   Hittite supplies this data as a sample of measured data at the package pin for
!   for this package product.  Your particular data for this product may vary.
!   Data was taken at 25 degrees C.
!   Hittite reserves the right to change this data at anytime.
!
# GHz S MA R 50

0.01	0.98685211	-0.4115571	0.00043300627	89.14914	0.00018857286	-134.59086	0.98513804	-0.50155771	
0.03	0.9856961	-0.96333791	0.00031927125	59.214288	0.00014615755	-109.98971	0.98554285	-1.6133035	
0.05	0.98435315	-1.5028844	0.00020543899	29.292273	0.00010369965	-85.375727	0.98576159	-2.7127055	
0.07	0.98336858	-2.0031301	0.00013277861	-2.9218531	7.3857663e-005	-56.983853	0.98573039	-3.7766333	
0.09	0.98283363	-2.4717398	0.00010130305	-37.435557	5.6639283e-005	-24.821557	0.98554112	-4.8127055	
0.11	0.98231256	-2.9415178	6.9827494e-005	-71.949767	3.9420893e-005	7.3402333	0.98536703	-5.8496759	
0.13	0.98212944	-3.4132887	0.00017160794	-76.793764	2.9126268e-005	43.696236	0.98526037	-6.8923115	
0.15	0.98198624	-3.8838712	0.00027338663	-81.636451	1.8832314e-005	80.053549	0.98519467	-7.9333816	
0.17	0.98184954	-4.3619838	0.00043669232	-85.1881	2.3672626e-005	86.8559	0.984802	-8.9875255	
0.19	0.98183261	-4.8410434	0.00066150952	-87.442264	4.3643667e-005	64.109736	0.98419612	-10.048116	
0.21	0.98183882	-5.3191703	0.0008862456	-89.695281	6.3607612e-005	41.364719	0.98361473	-11.107223	
0.23	0.9817492	-5.8022887	0.0012138332	-95.500782	5.0942543e-005	58.587218	0.98286849	-12.170695	
0.25	0.98164457	-6.285909	0.0015411984	-101.30629	3.8281368e-005	75.809713	0.98210917	-13.233988	
0.27	0.98156832	-6.7767144	0.0019551428	-104.76466	5.1905139e-005	77.797343	0.98134254	-14.295767	
0.29	0.98151611	-7.2748865	0.0024555604	-105.87605	9.1789906e-005	64.549946	0.98056429	-15.356172	
0.31	0.98143698	-7.7736685	0.0029554889	-106.98734	0.00013164196	51.302661	0.97976176	-16.416346	
0.33	0.98159186	-8.2677775	0.0036919089	-109.99329	0.00011977308	30.328708	0.97860621	-17.482954	
0.35	0.98175731	-8.7610704	0.0044276763	-112.99804	0.00010791157	9.3559603	0.97746365	-18.54783	
0.37	0.98183082	-9.2521163	0.0053411577	-115.98179	9.9395076e-005	19.35621	0.97604643	-19.605528	
0.39	0.98181847	-9.7406479	0.0064320698	-118.94431	9.4220796e-005	60.329689	0.97436095	-20.655758	
0.41	0.98181408	-10.228306	0.0075218214	-121.90549	8.9049814e-005	101.30451	0.97268669	-21.704083	
0.43	0.98177399	-10.719135	0.0093593245	-129.20541	0.00010323204	55.564585	0.97087842	-22.722813	
0.45	0.98172361	-11.2095	0.011194569	-136.50411	0.00011739572	9.825886	0.96906453	-23.740003	
0.47	0.98163513	-11.7109	0.011161412	-148.28566	0.00010959219	4.0503363	0.96810992	-24.749197	
0.49	0.98150879	-12.223279	0.0092630171	-164.55006	7.9859161e-005	38.237944	0.96801293	-25.750327	
0.51	0.98137831	-12.734868	0.0073666445	179.18699	5.0159675e-005	72.426992	0.96791386	-26.749539	
0.53	0.98124431	-13.237569	0.0078057429	-160.84859	7.072314e-005	82.439407	0.96623623	-27.900642	
0.55	0.98111581	-13.73917	0.0082441539	-140.88246	9.1258807e-005	92.453543	0.96456805	-29.049185	
0.57	0.9810275	-14.241699	0.0094877314	-130.26866	8.8335085e-005	95.867336	0.96239742	-30.161806	
0.59	0.98097002	-14.745331	0.011534737	-129.0072	6.1998433e-005	92.680796	0.95971733	-31.238761	
0.61	0.98091689	-15.247768	0.013578786	-127.74397	3.5697347e-005	89.496027	0.95704712	-32.313146	
0.63	0.98071809	-15.764957	0.015660008	-128.68702	3.4104374e-005	81.556983	0.95434893	-33.357584	
0.65	0.98052398	-16.280857	0.017738128	-129.62827	3.251333e-005	73.619731	0.95166048	-34.399407	
0.67	0.98037467	-16.793464	0.019895724	-130.70574	4.4700521e-005	46.642264	0.94897814	-35.440532	
0.69	0.98027004	-17.302753	0.022132593	-131.91941	7.0635882e-005	0.62458772	0.94630174	-36.480917	
0.71	0.98016591	-17.810768	0.024365941	-133.13124	9.6532419e-005	-45.391238	0.94363138	-37.518658	
0.73	0.9799763	-18.337293	0.026952004	-134.44873	9.2826107e-005	-6.5967303	0.94084607	-38.5617	
0.75	0.9797905	-18.862359	0.029534009	-135.76432	8.9124978e-005	32.199676	0.93806937	-39.601938	
0.77	0.97962029	-19.386031	0.032316531	-137.18206	8.1695859e-005	49.23994	0.9352081	-40.635521	
0.79	0.97946565	-19.90827	0.035299124	-138.70194	7.0547466e-005	44.52406	0.93226219	-41.662427	
0.81	0.97931482	-20.428957	0.038277094	-140.21993	5.9416076e-005	39.810074	0.92932441	-42.686467	
0.83	0.97912443	-20.959807	0.041625244	-141.71563	0.00010468319	42.754369	0.92608989	-43.715459	
0.85	0.97893468	-21.489116	0.044968192	-143.2094	0.00014988085	45.700596	0.92286108	-44.741628	
0.87	0.97863695	-22.018912	0.048535644	-144.73312	0.00015719877	50.456876	0.91963819	-45.763115	
0.89	0.97823764	-22.549002	0.052327439	-146.28688	0.00012672511	57.023124	0.91642504	-46.779761	
0.91	0.97784195	-23.077397	0.056113698	-147.83874	9.629836e-005	63.591261	0.91321847	-47.793503	
0.93	0.97761468	-23.615856	0.060384541	-149.48446	0.00011222326	60.213536	0.90977	-48.812128	
0.95	0.97739076	-24.152535	0.064649374	-151.12832	0.00012812497	56.837682	0.90632751	-49.827819	
0.97	0.97718823	-24.695176	0.069127935	-152.8202	0.00012982323	44.673802	0.90282311	-50.840603	
0.99	0.9770045	-25.243812	0.073819761	-154.56008	0.00011734947	23.721924	0.89925497	-51.850573	
1.01	0.97681977	-25.790702	0.078505211	-156.29806	0.00010489469	2.7719438	0.89568913	-52.857777	
1.03	0.9765121	-26.335737	0.083691125	-158.1383	8.592603e-005	17.911701	0.89220889	-53.854425	
1.05	0.97620741	-26.878876	0.088870711	-159.97676	6.6985277e-005	33.053238	0.88873189	-54.848243	
1.07	0.97584197	-27.425953	0.094255729	-161.87526	6.9978953e-005	41.62074	0.8852486	-55.841124	
1.09	0.97541592	-27.97692	0.099846076	-163.83381	9.4861884e-005	43.614193	0.88175832	-56.833075	
1.11	0.97499293	-28.525909	0.10543048	-165.79064	0.00011971297	45.609356	0.87826935	-57.82225	
1.13	0.9745451	-29.092354	0.11139844	-167.84554	8.6348932e-005	57.29046	0.87451601	-58.801326	
1.15	0.97409473	-29.657007	0.1173602	-169.89874	5.3028629e-005	68.973262	0.87076065	-59.77798	
1.17	0.97367995	-30.223438	0.123454	-172.01616	4.5266611e-005	63.549837	0.86702766	-60.755796	
1.19	0.97330058	-30.791626	0.12968001	-174.19784	6.3015406e-005	41.020159	0.86331625	-61.734809	
1.21	0.97292359	-31.357735	0.13590135	-176.37795	8.0744655e-005	18.492046	0.85960294	-62.711255	
1.23	0.97252647	-31.929424	0.14213725	-178.70456	9.8508906e-005	-5.8385635	0.85590038	-63.669769	
1.25	0.97213162	-32.498995	0.14836943	178.97032	0.00011625579	-30.16768	0.85219448	-64.625827	
1.27	0.97163769	-33.077909	0.15451442	176.62303	0.00012127289	-30.410974	0.84849036	-65.581384	
1.29	0.9710448	-33.666125	0.16057299	174.25352	0.00011358034	-6.5684779	0.84478713	-66.536496	
1.31	0.97045414	-34.252173	0.16662981	171.88539	0.00010589799	17.275388	0.84107806	-67.489327	
1.33	0.96991444	-34.836038	0.17239985	169.43014	0.00012703714	-3.2478573	0.83721586	-68.424767	
1.35	0.96937669	-35.417749	0.17816952	166.97615	0.0001481617	-23.769847	0.83334642	-69.358064	
1.37	0.96881298	-36.006763	0.1835646	164.4838	0.0001447383	-38.384197	0.82950906	-70.291017	
1.39	0.96822319	-36.603033	0.18858617	161.95306	0.00011679546	-47.090942	0.82570268	-71.223686	
1.41	0.96763495	-37.197099	0.19360968	159.42345	8.8875504e-005	-55.796553	0.82188631	-72.154396	
1.43	0.96704169	-37.788977	0.19749892	156.88669	8.1724252e-005	-64.753308	0.81809754	-73.071876	
1.45	0.96644971	-38.378682	0.20139176	154.35096	7.4579628e-005	-73.709036	0.81429732	-73.98756	
1.47	0.96583554	-38.979431	0.20465506	151.82461	6.9069005e-005	-80.573388	0.81049685	-74.901528	
1.49	0.96519909	-39.5912	0.20728978	149.3076	6.5190735e-005	-85.346401	0.80669532	-75.813862	
1.51	0.96456352	-40.200789	0.20993003	146.79147	6.1316107e-005	-90.118531	0.80287994	-76.724636	
1.53	0.96381295	-40.819341	0.21105076	144.40038	9.189038e-005	-67.00562	0.79897421	-77.618376	
1.55	0.963063	-41.435704	0.21217818	142.01006	0.00012245923	-43.891943	0.7950529	-78.510703	
1.57	0.96235461	-42.057423	0.21251335	139.70282	0.00013752081	-42.657179	0.79121248	-79.403662	
1.59	0.96168742	-42.684511	0.21205667	137.47864	0.00013708083	-63.301361	0.78745231	-80.297367	
1.61	0.96101996	-43.309474	0.21160739	135.25507	0.00013664566	-83.944926	0.78367428	-81.189964	
1.63	0.96028112	-43.943566	0.20964915	133.24823	0.00014825934	-81.067772	0.77996026	-82.066445	
1.65	0.95954179	-44.575582	0.20769823	131.24189	0.00015987876	-78.190106	0.7762274	-82.942007	
1.67	0.95878349	-45.216614	0.20501206	129.40273	0.00015157053	-81.169274	0.77251591	-83.822198	
1.69	0.95800596	-45.866664	0.20159046	127.73066	0.00012332946	-90.00534	0.76882482	-84.707143	
1.71	0.95722728	-46.514689	0.1981755	126.05893	9.5085649e-005	-98.841067	0.76511244	-85.591469	
1.73	0.95646684	-47.16446	0.19362849	124.79932	8.8125187e-005	-97.376682	0.76142253	-86.456383	
1.75	0.95570467	-47.812295	0.18908693	123.53993	8.1165282e-005	-95.912069	0.75771045	-87.320882	
1.77	0.95488547	-48.469417	0.18417803	122.54721	0.00010382124	-94.334788	0.75401018	-88.188905	
1.79	0.95400899	-49.13585	0.17890103	121.82109	0.0001561188	-92.644905	0.75032103	-89.060576	
1.81	0.95313004	-49.800455	0.17362757	121.09502	0.00020845566	-90.954984	0.74660777	-89.932159	
1.83	0.95217098	-50.485563	0.1678506	120.92619	0.00018698675	-95.043811	0.74298027	-90.796229	
1.85	0.95120661	-51.16906	0.16207553	120.75733	0.00016550824	-99.132669	0.73932818	-91.660624	
1.87	0.95013216	-51.862012	0.1562092	120.96653	0.00017963223	-105.61147	0.73561862	-92.519544	
1.89	0.94894719	-52.564463	0.15025077	121.55371	0.00022940903	-114.48029	0.7318511	-93.373083	
1.91	0.94775812	-53.265325	0.14429222	122.14059	0.00027924661	-123.34941	0.72805724	-94.227097	
1.93	0.9466834	-53.975747	0.13861122	123.64019	0.00028054268	-126.73381	0.7245206	-95.082166	
1.95	0.94560392	-54.684721	0.13292914	125.13938	0.00028185169	-130.11862	0.72095741	-95.937998	
1.97	0.9445147	-55.405034	0.12767804	127.26081	0.00028203121	-127.12319	0.7173951	-96.79063	
1.99	0.94341517	-56.136767	0.1228582	130.00437	0.00028107929	-117.74763	0.7138333	-97.640213	
2.01	0.94230966	-56.867253	0.11803651	132.74733	0.00028013758	-108.37267	0.71024381	-98.490916	
2.03	0.94110256	-57.611385	0.11511267	136.89392	0.00027913771	-111.73408	0.70654039	-99.346546	
2.05	0.93988867	-58.354443	0.1121888	141.03973	0.00027814767	-115.09627	0.70280836	-100.20354	
2.07	0.93862869	-59.103914	0.11076241	145.65876	0.00028264018	-114.28924	0.69899322	-101.05803	
2.09	0.93732212	-59.859888	0.11083723	150.75092	0.00029263017	-109.31308	0.69509457	-101.9101	
2.11	0.93600753	-60.615048	0.11091661	155.84207	0.00030265064	-104.33793	0.6911663	-102.76384	
2.13	0.93455245	-61.398651	0.11474088	161.34198	0.00034255991	-110.55802	0.68745679	-103.61575	
2.15	0.93308809	-62.181661	0.11857774	166.84072	0.00038256577	-116.77928	0.68371791	-104.46966	
2.17	0.9315086	-62.97712	0.12526671	171.82626	0.00038136909	-117.50974	0.67985793	-105.32152	
2.19	0.92981303	-63.785146	0.13481819	176.29849	0.00033883279	-112.74951	0.67587638	-106.17141	
2.21	0.92810622	-64.592924	0.14439739	-179.23072	0.00029620975	-107.99072	0.67186464	-107.02363	
2.23	0.92642022	-65.422851	0.15711503	-176.56874	0.00029167513	-107.59274	0.66782765	-107.85082	
2.25	0.92472196	-66.252798	0.16987045	-173.90833	0.00028714031	-107.19633	0.66376109	-108.68048	
2.27	0.92298621	-67.093759	0.1838011	-171.70296	0.00030615453	-107.58296	0.65969879	-109.50866	
2.29	0.92121216	-67.945926	0.19891337	-169.95275	0.00034881316	-108.75275	0.65564104	-110.33551	
2.31	0.91942416	-68.798529	0.21407465	-168.20435	0.00039160231	-109.92435	0.65155407	-111.16521	
2.33	0.91737744	-69.68515	0.23230403	-167.13326	0.00038293786	-107.01726	0.64744251	-111.98597	
2.35	0.91531461	-70.572539	0.25059555	-166.06418	0.00037426152	-104.11218	0.64330215	-112.80978	
2.37	0.91324611	-71.475801	0.27008301	-165.30066	0.00037027302	-103.27066	0.63915018	-113.63283	
2.39	0.91117117	-72.395146	0.29077426	-164.84278	0.0003709934	-104.49278	0.63498706	-114.45524	
2.41	0.90907834	-73.315772	0.31154154	-164.38715	0.00037172859	-105.71715	0.63079605	-115.28103	
2.43	0.90677952	-74.256074	0.33505963	-164.22533	0.00040008689	-108.75133	0.62662761	-116.10218	
2.45	0.90446087	-75.198048	0.35866784	-164.06596	0.00042855373	-111.78796	0.62243219	-116.92699	
2.47	0.90194941	-76.164324	0.38368374	-164.06498	0.00045265536	-111.68898	0.61817981	-117.74119	
2.49	0.89924301	-77.155161	0.41011757	-164.22254	0.00047237147	-108.45454	0.61387097	-118.54476	
2.51	0.89651306	-78.148297	0.4366589	-164.38284	0.00049217247	-105.22284	0.60953642	-119.35217	
2.53	0.89366085	-79.166801	0.46660074	-164.73752	0.00051322881	-104.15752	0.60519608	-120.15553	
2.55	0.89078344	-80.188044	0.49666752	-165.09513	0.00053437783	-103.09513	0.60083135	-120.96292	
2.57	0.88771916	-81.238498	0.52850312	-165.55555	0.0005718165	-103.48155	0.59642092	-121.77215	
2.59	0.88446553	-82.318579	0.5621218	-166.11898	0.00062564491	-105.31698	0.59196556	-122.58337	
2.61	0.88118263	-83.402221	0.59588827	-166.68572	0.00067970402	-107.15572	0.58748757	-123.39899	
2.63	0.87771047	-84.512366	0.63346082	-167.41183	0.00070883762	-104.28583	0.58290941	-124.18948	
2.65	0.87420658	-85.626553	0.67120024	-168.1414	0.00073810452	-101.4194	0.57830963	-124.98439	
2.67	0.87055645	-86.775708	0.71095616	-168.94419	0.00078382262	-98.404188	0.57372523	-125.77772	
2.69	0.86675777	-87.960284	0.75274518	-169.82038	0.00084610124	-95.240382	0.56915714	-126.56952	
2.71	0.86292347	-89.149842	0.79472586	-170.70036	0.00090866195	-92.08036	0.56456974	-127.36602	
2.73	0.85838481	-90.382567	0.84084692	-171.6617	0.00093119009	-90.485703	0.55983843	-128.1328	
2.75	0.85380482	-91.620953	0.88717944	-172.62709	0.0009538249	-88.895087	0.55508947	-128.90433	
2.77	0.84913567	-92.888776	0.93615931	-173.64655	0.00096924998	-88.666552	0.55030182	-129.67851	
2.79	0.84437584	-94.186533	0.9878055	-174.72024	0.00097741492	-89.800244	0.54547645	-130.45546	
2.81	0.83957232	-95.490996	1.0396877	-175.79822	0.00098561635	-90.938224	0.54063621	-131.2375	
2.83	0.83417991	-96.864563	1.0967353	-176.98594	0.0010818927	-87.813939	0.53578466	-132.01102	
2.85	0.82873867	-98.24563	1.1540415	-178.17821	0.0011786118	-84.694211	0.53091965	-132.78964	
2.87	0.8229669	-99.658155	1.2143532	-179.41549	0.0012549327	-84.397487	0.52604741	-133.54351	
2.89	0.81686144	-101.10276	1.2776854	179.30212	0.0013107052	-86.923882	0.52117021	-134.27254	
2.91	0.81070332	-102.5561	1.3412904	178.01501	0.0013667145	-89.454989	0.51628379	-135.0068	
2.93	0.80374547	-104.08108	1.4105254	176.61198	0.001482605	-87.826015	0.51125439	-135.74432	
2.95	0.79672966	-105.61559	1.4800446	175.20406	0.0015989967	-86.201942	0.50621694	-136.48706	
2.97	0.78938309	-107.1942	1.5529188	173.75659	0.001729614	-85.547414	0.50122448	-137.21346	
2.99	0.78170362	-108.81763	1.6291596	172.26947	0.0018745409	-85.862531	0.49627909	-137.92345	
3.01	0.77396566	-110.45198	1.7056823	170.77741	0.0020200548	-86.18259	0.49133014	-138.63881	
3.03	0.76543131	-112.16216	1.7885435	169.17759	0.0021195619	-85.986408	0.48633706	-139.3285	
3.05	0.75683571	-113.88431	1.8716796	167.57281	0.0022194008	-85.795189	0.48134186	-140.02358	
3.07	0.7477528	-115.65777	1.9584175	165.92144	0.0023490366	-86.906558	0.47633478	-140.7062	
3.09	0.73818132	-117.48347	2.0487527	164.22348	0.0025086267	-89.32052	0.47131824	-141.37656	
3.11	0.72855251	-119.32284	2.1393216	162.52079	0.0026687082	-91.739213	0.46630456	-142.05282	
3.13	0.71785797	-121.2666	2.235813	160.72536	0.0028169356	-93.186643	0.46132377	-142.69385	
3.15	0.70710792	-123.22532	2.3324932	158.92541	0.0029655062	-94.638585	0.456347	-143.34069	
3.17	0.69588839	-125.23427	2.4326926	157.08315	0.0031106051	-95.374845	0.45140125	-143.98873	
3.19	0.68420205	-127.29411	2.5363835	155.19877	0.0032521486	-95.39523	0.44648762	-144.63786	
3.21	0.67247494	-129.37016	2.6401665	153.31062	0.0033938397	-95.419375	0.4415812	-145.29277	
3.23	0.65956727	-131.56573	2.7501298	151.33545	0.003607976	-97.458554	0.43693595	-145.8739	
3.25	0.6466315	-133.77972	2.8601018	149.35704	0.0038223339	-99.500961	0.43229937	-146.4615	
3.27	0.63316389	-136.05913	2.9726364	147.33317	0.004065326	-101.14083	0.42764172	-147.04766	
3.29	0.61917464	-138.40505	3.0876731	145.26428	0.004336935	-102.37772	0.42296457	-147.63243	
3.31	0.60518933	-140.77161	3.2025597	143.19341	0.0046085812	-103.61659	0.41829865	-148.22418	
3.33	0.58995665	-143.27428	3.3206032	141.06032	0.0048077838	-105.61768	0.41394611	-148.7719	
3.35	0.57475318	-145.80041	3.4383616	138.92633	0.0050066213	-107.61967	0.40960126	-149.32688	
3.37	0.55912462	-148.40161	3.558009	136.74985	0.0052358518	-109.47215	0.40530397	-149.87512	
3.39	0.54309089	-151.07982	3.6794694	134.53154	0.0054953888	-111.17446	0.4010546	-150.41683	
3.41	0.52713986	-153.78548	3.8004618	132.31417	0.005754285	-112.87583	0.39681258	-150.96646	
3.43	0.51031788	-156.63846	3.92309	130.03448	0.0059763832	-114.62752	0.39286091	-151.4883	
3.45	0.49362222	-159.52322	4.0451187	127.75718	0.0061975715	-116.37682	0.38891339	-152.01798	
3.47	0.47658555	-162.5171	4.166847	125.45837	0.0064480362	-118.26763	0.38502794	-152.54072	
3.49	0.45923914	-165.62429	4.2881969	123.13899	0.0067276063	-120.29901	0.38120159	-153.0568	
3.51	0.44209354	-168.77199	4.4087915	120.8242	0.0070059101	-122.3258	0.37737329	-153.58137	
3.53	0.42451235	-172.09546	4.5269634	118.48321	0.0072435886	-123.97879	0.37392667	-154.10453	
3.55	0.40719048	-175.46703	4.6443134	116.14836	0.0074798777	-125.62564	0.37047831	-154.63549	
3.57	0.39005957	-178.98945	4.7598278	113.80384	0.0077386418	-127.42816	0.36714438	-155.16682	
3.59	0.37315915	177.33128	4.8734802	111.45047	0.0080197353	-129.38553	0.36392063	-155.69848	
3.61	0.35660362	173.58982	4.9862902	109.1051	0.0082992251	-131.3349	0.36068771	-156.2377	
3.63	0.34024927	169.56618	5.0949051	106.73899	0.0085258486	-133.50101	0.35743916	-156.79317	
3.65	0.32430686	165.46893	5.2026976	104.38229	0.0087509698	-135.65771	0.35417982	-157.3551	
3.67	0.30883133	161.15373	5.3067412	102.03862	0.0089943187	-137.78538	0.35103756	-157.92187	
3.69	0.29387009	156.61536	5.4070711	99.708788	0.0092558215	-139.88321	0.34801162	-158.49302	
3.71	0.2794043	151.98857	5.5067321	97.389844	0.0095158798	-141.97016	0.34497369	-159.06934	
3.73	0.2663568	146.91745	5.6003142	95.073892	0.0097808619	-143.86211	0.34205054	-159.66501	
3.75	0.25386181	141.76651	5.6933591	92.769723	0.010044545	-145.74228	0.33911883	-160.26499	
3.77	0.24260395	136.33307	5.7819048	90.486677	0.010298559	-147.72932	0.336219	-160.86809	
3.79	0.23259836	130.64626	5.8660289	88.22533	0.010543041	-149.82267	0.33335252	-161.47318	
3.81	0.22312829	124.92655	5.94992	85.976194	0.010786763	-151.90381	0.33048138	-162.08024	
3.83	0.21586291	118.73706	6.0257552	83.752731	0.010986247	-153.85927	0.32759698	-162.72029	
3.85	0.20904579	112.6008	6.1015819	81.541903	0.011185489	-155.8021	0.32471792	-163.36158	
3.87	0.20398266	106.27751	6.1737803	79.356549	0.011401707	-157.71145	0.32179746	-164.00992	
3.89	0.20054858	99.86076	6.2424271	77.197241	0.011634915	-159.58676	0.31883744	-164.66509	
3.91	0.19722026	93.644135	6.3114379	75.050069	0.011868431	-161.44993	0.31588942	-165.31954	
3.93	0.1971696	87.297277	6.373047	72.949262	0.012040969	-163.37074	0.31305699	-165.96678	
3.95	0.1968788	81.247984	6.4352009	70.860034	0.012214348	-165.27997	0.31024614	-166.613	
3.97	0.19811283	75.378697	6.4939244	68.800878	0.012375625	-167.15512	0.30744744	-167.32518	
3.99	0.2006834	69.703531	6.5491787	66.77222	0.01252476	-168.99578	0.30466954	-168.10398	
4.01	0.20260062	64.311112	6.6052013	64.753345	0.012675236	-170.82666	0.30192875	-168.88194	
4.03	0.20698814	59.251615	6.6522252	62.787669	0.012888604	-172.56833	0.29914995	-169.50573	
4.05	0.21059806	54.386949	6.7000116	60.831039	0.013103122	-174.30096	0.29640399	-170.12718	
4.07	0.21502199	49.861312	6.7460291	58.893418	0.013306397	-175.91258	0.29356589	-170.76785	
4.09	0.22030059	45.591388	6.7901	56.975452	0.013498123	-177.40255	0.29063908	-171.4287	
4.11	0.22480864	41.375038	6.8349267	55.065554	0.013691116	-178.88445	0.28775379	-172.08801	
4.13	0.230821	37.759238	6.8744441	53.206239	0.01387568	179.45224	0.28472094	-172.71684	
4.15	0.2362033	34.114241	6.9146014	51.354523	0.014061324	177.79652	0.2817359	-173.34362	
4.17	0.24174173	30.766141	6.9524068	49.53626	0.014215859	176.15026	0.27866241	-173.99444	
4.19	0.24755976	27.692218	6.9877201	47.751119	0.014339078	174.51312	0.27550534	-174.67063	
4.21	0.25288133	24.555875	7.0236868	45.972144	0.014463558	172.88214	0.27240588	-175.34632	
4.23	0.25863582	21.916408	7.0567616	44.238483	0.0146585	171.47248	0.2694017	-176.04642	
4.25	0.26401079	19.215035	7.0904199	42.509834	0.014854487	170.06783	0.26645364	-176.74561	
4.27	0.26915596	16.677185	7.1221131	40.80299	0.014997304	168.65099	0.26364728	-177.4316	
4.29	0.27413801	14.310156	7.1517646	39.117262	0.015086888	167.22126	0.26098436	-178.10527	
4.31	0.27882182	11.891872	7.1820084	37.434937	0.015177698	165.79494	0.25838177	-178.77909	
4.33	0.28363862	9.805985	7.20841	35.808722	0.015364306	164.34872	0.25573775	-179.38829	
4.35	0.28822513	7.6776762	7.2353409	34.185119	0.015551957	162.90512	0.25315341	-179.99645	
4.37	0.2925557	5.6606861	7.2616641	32.582359	0.01567467	161.51436	0.25065711	179.39688	
4.39	0.2966665	3.7614438	7.2873147	31.000033	0.01573236	160.17603	0.24824663	178.78998	
4.41	0.30059762	1.8284059	7.3134605	29.4193	0.01579112	158.8393	0.2458945	178.18172	
4.43	0.30450702	0.10015375	7.3383782	27.879789	0.015982155	157.45179	0.24331532	177.60595	
4.45	0.30827092	-1.6566645	7.3637445	26.34146	0.016174144	156.06546	0.24079676	177.03005	
4.47	0.31182246	-3.3259418	7.3879906	24.821601	0.016311798	154.8256	0.23838127	176.46363	
4.49	0.31518377	-4.9035742	7.4110633	23.320001	0.016395012	153.732	0.23606231	175.90529	
4.51	0.31843386	-6.5045826	7.4345384	21.818985	0.01647912	152.63899	0.23379591	175.34473	
4.53	0.32117875	-7.942042	7.4562424	20.365249	0.016605801	151.29325	0.23167437	174.81274	
4.55	0.32383017	-9.3990402	7.4782938	18.911724	0.016733277	149.94772	0.22960872	174.27883	
4.57	0.32636733	-10.818015	7.5003913	17.467369	0.016867849	148.70737	0.22755434	173.75745	
4.59	0.3288	-12.197619	7.5225123	16.032102	0.017009478	147.5721	0.22550788	173.24853	
4.61	0.33115918	-13.596286	7.5449486	14.596926	0.017151862	146.43693	0.22351017	172.73926	
4.63	0.33324408	-14.862607	7.5658124	13.210469	0.017298016	144.98647	0.22168287	172.28985	
4.65	0.33526294	-16.143962	7.5869578	11.823711	0.01744487	143.53571	0.21990864	171.83701	
4.67	0.33711662	-17.387511	7.6085672	10.443245	0.017571732	142.27124	0.21815628	171.37139	
4.69	0.33881454	-18.592302	7.6306148	9.0690518	0.017678525	141.19305	0.21641887	170.89299	
4.71	0.34046279	-19.811129	7.652912	7.6943886	0.017785936	140.11439	0.21472469	170.41075	
4.73	0.34175862	-20.934288	7.6739126	6.3484664	0.017890677	139.00047	0.2131948	169.9787	
4.75	0.34301191	-22.069918	7.6951262	5.0019605	0.01799596	137.88596	0.21170494	169.54234	
4.77	0.34412078	-23.175763	7.715849	3.6738781	0.018084537	136.80588	0.21024807	169.10789	
4.79	0.34508995	-24.250982	7.7360603	2.3642139	0.018156341	135.76021	0.20882061	168.67503	
4.81	0.34602661	-25.337735	7.7564545	1.0538677	0.018228597	134.71387	0.20742684	168.23713	
4.83	0.3467663	-26.367224	7.7780254	-0.23568495	0.018345134	133.52432	0.20639828	167.82879	
4.85	0.34747611	-27.407202	7.7997556	-1.52599	0.018462109	132.33401	0.20540337	167.41575	
4.87	0.34799451	-28.429258	7.8213215	-2.8118496	0.018590352	131.19615	0.20434641	166.99935	
4.89	0.34832347	-29.433148	7.8427069	-4.0932589	0.018729843	130.11074	0.20322646	166.57944	
4.91	0.3486288	-30.447241	7.8642248	-5.3754719	0.01886974	129.02453	0.20213676	166.15424	
4.93	0.34874092	-31.388632	7.8847267	-6.6246031	0.018997118	128.0274	0.2012666	165.75045	
4.95	0.3488349	-32.33929	7.9053352	-7.8745126	0.019124832	127.02949	0.20042152	165.34207	
4.97	0.34877531	-33.27728	7.9263434	-9.1181923	0.019241779	125.98581	0.19968776	164.94339	
4.99	0.34856376	-34.201995	7.9477357	-10.355649	0.019347903	124.89635	0.19906224	164.55398	
5.01	0.34833954	-35.135278	7.9692089	-11.593918	0.019454282	123.80608	0.19845568	164.15937	
5.03	0.34791668	-36.036579	7.9900989	-12.818477	0.019535884	122.69352	0.19791049	163.73697	
5.05	0.34748554	-36.945873	8.0110509	-14.043809	0.01961767	121.58019	0.19737987	163.30951	
5.07	0.34697309	-37.831924	8.0321165	-15.25867	0.019728971	120.55933	0.19694792	162.90537	
5.09	0.34637967	-38.694514	8.0532856	-16.463031	0.019869809	119.63097	0.1966147	162.52559	
5.11	0.34578174	-39.564797	8.0744965	-17.668128	0.020010846	118.70187	0.19629364	162.14207	
5.13	0.34499759	-40.418147	8.0966608	-18.867294	0.020119822	117.72271	0.19605463	161.73456	
5.15	0.34421306	-41.278698	8.1188525	-20.067156	0.020228923	116.74284	0.19582305	161.32347	
5.17	0.34324752	-42.125864	8.1404878	-21.254961	0.020318534	115.75904	0.19567698	160.91027	
5.19	0.34210312	-42.959377	8.161552	-22.430666	0.020388588	114.77133	0.19561297	160.49564	
5.21	0.34096431	-43.799657	8.1826183	-23.606999	0.020458665	113.783	0.19554921	160.07835	
5.23	0.33968969	-44.598794	8.2047954	-24.7847	0.020560785	112.8773	0.195511	159.67074	
5.25	0.33842185	-45.404218	8.2269647	-25.962958	0.02066293	111.97104	0.19547215	159.26086	
5.27	0.33698949	-46.213314	8.2486124	-27.131141	0.020764772	110.99486	0.19554927	158.83274	
5.29	0.33539439	-47.025858	8.2697215	-28.289188	0.020866268	109.94881	0.19573926	158.3871	
5.31	0.33381893	-47.844913	8.2907739	-29.447435	0.020967665	108.90257	0.19591619	157.94284	
5.33	0.33225689	-48.647451	8.3132896	-30.598981	0.021100727	107.91102	0.19628881	157.50185	
5.35	0.33070818	-49.455499	8.3357683	-31.750955	0.021233762	106.91905	0.19665339	157.06025	
5.37	0.32904556	-50.245805	8.3579124	-32.895702	0.021335438	105.9563	0.19695984	156.6153	
5.39	0.32727166	-51.01819	8.3797162	-34.033149	0.0214057	105.02285	0.19720554	156.16767	
5.41	0.32551776	-51.795742	8.4014721	-35.170887	0.021475851	104.08911	0.19743705	155.72059	
5.43	0.32360384	-52.566293	8.4235851	-36.303116	0.02156038	103.13288	0.19794986	155.23767	
5.45	0.32171181	-53.34165	8.4456388	-37.435561	0.021644778	102.17644	0.19844608	154.75667	
5.47	0.31964553	-54.098339	8.467202	-38.565106	0.021713251	101.24289	0.19894858	154.2747	
5.49	0.31740609	-54.836169	8.488267	-39.691676	0.021765765	100.33232	0.19945581	153.7925	
5.51	0.31519258	-55.578424	8.509261	-40.818326	0.021818096	99.421674	0.19994219	153.31331	
5.53	0.31292602	-56.351786	8.5313807	-41.934128	0.021950035	98.477872	0.20055874	152.83684	
5.55	0.31068557	-57.129452	8.5534222	-43.049989	0.022081818	97.534011	0.20115365	152.36278	
5.57	0.30835884	-57.897252	8.5749376	-44.16672	0.022203522	96.58128	0.20181033	151.85474	
5.59	0.30594653	-58.654841	8.595923	-45.28425	0.022315127	95.61975	0.20252776	151.31384	
5.61	0.30356492	-59.416161	8.6168229	-46.40168	0.022426534	94.65832	0.20321909	150.77721	
5.63	0.3010072	-60.121033	8.639567	-47.499398	0.022465485	93.764602	0.20386409	150.22081	
5.65	0.29848289	-60.829366	8.6622289	-48.596898	0.022504215	92.871102	0.20448117	149.67018	
5.67	0.29588169	-61.564505	8.68446	-49.695327	0.022595975	91.986673	0.20519221	149.11544	
5.69	0.29320255	-62.326537	8.7062503	-50.794666	0.022740761	91.111334	0.20599725	148.55619	
5.71	0.29055797	-63.092001	8.7279464	-51.893714	0.022885324	90.236286	0.20677227	148.00223	
5.73	0.28773872	-63.842557	8.7487575	-52.988849	0.022940953	89.285151	0.20742966	147.44306	
5.75	0.28495893	-64.596414	8.7694769	-54.083614	0.022996341	88.334386	0.20805319	146.89	
5.77	0.2820795	-65.316902	8.7904723	-55.178651	0.023056675	87.371349	0.20877732	146.29785	
5.79	0.27910003	-66.003247	8.8117431	-56.273847	0.023121954	86.396153	0.20960076	145.66765	
5.81	0.27616112	-66.691731	8.8329253	-57.368498	0.023187	85.421502	0.21038718	145.04489	
5.83	0.27313908	-67.42856	8.8545766	-58.45142	0.023265348	84.57058	0.21108601	144.46534	
5.85	0.27015796	-68.168259	8.8761382	-59.533799	0.023343459	83.720201	0.21174881	143.89244	
5.87	0.26704866	-68.897657	8.8976206	-60.618245	0.023441107	82.869755	0.21246	143.29534	
5.89	0.26380957	-69.616303	8.9190225	-61.704703	0.02355828	82.019297	0.21321928	142.67405	
5.91	0.26061205	-70.337034	8.9403368	-62.790478	0.023675212	81.169522	0.21393971	142.05955	
5.93	0.25740699	-71.03083	8.9598356	-63.867252	0.023703303	80.252748	0.21457301	141.38971	
5.95	0.25424689	-71.72673	8.9792601	-64.943271	0.023731204	79.336729	0.21516531	140.7282	
5.97	0.25093524	-72.429115	8.9984576	-66.019254	0.023801767	78.472746	0.21576762	140.06231	
5.99	0.24747595	-73.137876	9.0174218	-67.094945	0.023914954	77.661055	0.21637556	139.39271	