!
! Hittite Microwave Corporation
! 20 Alpha Road
! Chelmsford, MA 01824
! http://www.hittite.com
! Tel: 978-250-3343
! Fax: 978-250-3373
! 
! Device:      HMC902LP3E
! Description: GaAs pHEMT MMIC Low Noise Amplifier
! Frequency:   5.00 -  10.00 GHz
! Package:     LP3  - 3x3 mm Quad Flatpack No-Lead (QFN) Plastic Package: 16 pin
! Ports:       2 RF, 4 DC
!              Pin  3 = RF In  = Port 1
!              Pin  5 = Vgg1 (Optional)
!              Pin  6 = Vgg2 (Optional)
!              Pin 10 = RF Out  = Port 2
!              Pin 14 = Vdd2
!              Pin 15 = Vdd1
!
!
! Voltages:    Vdd  = Vdd1 = Vdd2 = +3.50  Volts
!              Idd  = Idd1 + Idd2 = 70.51  mA
!              Vgg  = Vgg1 = Vgg2 = -0.16  Volts
!              Igg  = Igg1 + Igg2 = -0.04  mA
!
! Data:    The device was measured on evaluation board 128395.
!          Data was collected using a calibrated network analyzer.
!          The evaluation circuit board was modeled and simulated.  This was use
!          to removed the evaluation board circuit from the measured data.
!          The reference plane is the edge of the package pin.
!
! Misc:        
!
! Date Measured:  2010-08-30
! Date:           2010-09-07 MJV
! Note: 
!   Hittite supplies this data as a sample of measured data at the package pin for
!   for this package product.  Your particular data for this product may vary.
!   Data was taken at 25 degrees C.
!   Hittite reserves the right to change this data at anytime.
!
# GHz S MA R 50

0.01	0.98651132	-0.41155733	0.00021051787	-117.83086	0.00063908552	173.46914	0.98552375	-0.57155689	
0.03	0.98540553	-0.96333835	0.00017415954	-92.589698	0.00041840801	104.3783	0.98578796	-1.6553003	
0.05	0.98411288	-1.5028851	0.00013775341	-67.335708	0.00019758896	35.300292	0.98586599	-2.7267027	
0.07	0.98317163	-2.003131	0.00012754984	-55.269838	8.4603104e-005	-4.5078375	0.98575989	-3.7746338	
0.09	0.98267298	-2.4717408	0.00014355958	-56.399546	7.9453964e-005	-15.053546	0.98556152	-4.8067084	
0.11	0.98218822	-2.9415189	0.00015956649	-57.529763	7.4303913e-005	-25.599763	0.98537833	-5.8396832	
0.13	0.98202775	-3.4172872	0.00026707288	-69.409749	5.5502295e-005	-87.023749	0.98524449	-6.8863179	
0.15	0.9819072	-3.8918654	0.00037457822	-81.288422	3.6701933e-005	-148.44642	0.98515163	-7.9313852	
0.17	0.9817886	-4.3699761	0.00054337697	-87.880068	3.516279e-005	164.28793	0.98475897	-8.9875265	
0.19	0.98178522	-4.845039	0.00077346496	-89.178244	5.0883852e-005	131.18576	0.98418025	-10.048117	
0.21	0.98180497	-5.3191711	0.0010034693	-90.475275	6.6599215e-005	98.084725	0.98362602	-11.107223	
0.23	0.98172892	-5.8062815	0.0013067365	-95.500766	6.4342086e-005	77.963234	0.98285724	-12.170696	
0.25	0.98163787	-6.2938912	0.0016097887	-100.52626	6.2082993e-005	57.841741	0.98207539	-13.233989	
0.27	0.98159541	-6.7826978	0.0020283851	-103.88464	6.1530371e-005	53.103361	0.98127953	-14.293778	
0.29	0.9815972	-7.2728896	0.0025623949	-105.57608	6.2682491e-005	63.747925	0.98046536	-15.350204	
0.31	0.981572	-7.7636972	0.0030958878	-107.26741	6.3830055e-005	74.392594	0.97962694	-16.406406	
0.33	0.98158275	-8.2578164	0.0038374962	-110.59734	7.5830168e-005	95.574661	0.97850285	-17.469043	
0.35	0.98160415	-8.7511207	0.0045784467	-113.92607	8.7819396e-005	116.75793	0.9773917	-18.529953	
0.37	0.98161249	-9.2441656	0.0055192901	-116.98981	0.0001024616	128.38619	0.97601023	-19.585676	
0.39	0.98161379	-9.7366802	0.0066597097	-119.78834	0.00011975257	130.45966	0.97436482	-20.635918	
0.41	0.98162307	-10.228317	0.0077989153	-122.58553	0.00013702481	132.53447	0.97273059	-21.684255	
0.43	0.98161902	-10.719145	0.0097221409	-129.78542	0.00011426074	106.84658	0.97084724	-22.70697	
0.45	0.98160464	-11.209509	0.011643005	-136.98409	9.1516384e-005	81.15991	0.96895837	-23.72814	
0.47	0.98154092	-11.710907	0.011595821	-148.59964	7.6501088e-005	75.380363	0.967995	-24.739323	
0.49	0.98142809	-12.223285	0.0095839233	-164.63206	6.9202819e-005	89.507939	0.96795534	-25.740456	
0.51	0.98131113	-12.734874	0.0075741762	179.33695	6.1911368e-005	103.63695	0.96791352	-26.73967	
0.53	0.98117718	-13.237575	0.0080698046	-160.59464	7.9009605e-005	74.201363	0.96624025	-27.890782	
0.55	0.98104873	-13.739175	0.008564668	-140.52451	9.6084424e-005	44.767494	0.96457642	-29.039334	
0.57	0.980956	-14.241705	0.0098745928	-129.92478	0.00012780486	45.769216	0.9624467	-30.146056	
0.59	0.98088965	-14.745339	0.011997817	-128.79547	0.00017413938	77.206531	0.95984398	-31.211222	
0.61	0.98082767	-15.247779	0.014117976	-127.66439	0.00022040805	108.64561	0.95725098	-32.273842	
0.63	0.98053989	-15.764976	0.016215692	-128.62733	0.00016817259	85.474667	0.95458231	-33.326161	
0.65	0.98025694	-16.280885	0.018310276	-129.58847	0.00011600964	62.305528	0.95192336	-34.375848	
0.67	0.98012117	-16.793492	0.020538516	-130.66594	9.7009271e-005	53.262055	0.94926999	-35.418949	
0.69	0.98013226	-17.30277	0.022900085	-131.85976	0.00011110024	58.344244	0.946622	-36.455441	
0.71	0.98014367	-17.810774	0.025257934	-133.05172	0.0001251693	63.428277	0.94397997	-37.489299	
0.73	0.97991436	-18.341233	0.027969607	-134.32524	0.00012805888	56.758758	0.94127292	-38.528453	
0.75	0.97968893	-18.870225	0.030677016	-135.59686	0.00013094344	50.09114	0.93857435	-39.564811	
0.77	0.97948787	-19.393894	0.033563438	-136.94859	0.00011537425	61.875408	0.93573644	-40.598427	
0.79	0.97931118	-19.912211	0.036628491	-138.38044	8.1393889e-005	92.111559	0.93275928	-41.629268	
0.81	0.97913831	-20.428984	0.039688801	-139.8104	4.7465491e-005	122.3496	0.92979032	-42.657234	
0.83	0.97901405	-20.955916	0.043194724	-141.31029	0.00010294009	106.46171	0.92666448	-43.682354	
0.85	0.9788903	-21.481314	0.046695179	-142.80826	0.00015832937	90.575737	0.92354419	-44.704659	
0.87	0.97862129	-22.013064	0.050413179	-144.32002	0.00017044329	75.455984	0.9204288	-45.726158	
0.89	0.97821357	-22.550956	0.054348584	-145.84562	0.00013938284	61.102375	0.9173222	-46.746679	
0.91	0.97780951	-23.087137	0.058278205	-147.36933	0.00010837052	46.750672	0.91422208	-47.764289	
0.93	0.97759545	-23.625584	0.062703878	-149.03911	0.00010161164	49.516895	0.91074033	-48.779094	
0.95	0.97738471	-24.162251	0.067123322	-150.70701	9.4863614e-005	52.284987	0.90726465	-49.790976	
0.97	0.97717129	-24.704885	0.071805262	-152.40898	0.00010096719	48.803019	0.9037927	-50.798019	
0.99	0.97695264	-25.253517	0.076749107	-154.14498	0.00011989375	39.071023	0.90032253	-51.800322	
1.01	0.97673305	-25.800401	0.081686194	-155.87907	0.00013879335	29.340926	0.89685458	-52.799875	
1.03	0.97643858	-26.34542	0.087142255	-157.67923	0.0001318669	28.096766	0.89338455	-53.800415	
1.05	0.97614705	-26.888542	0.092591635	-159.47761	0.00012495188	26.854391	0.88991777	-54.798119	
1.07	0.97577736	-27.433678	0.098256887	-161.36608	0.00011471687	17.357922	0.8864929	-55.792951	
1.09	0.9753297	-27.980786	0.10413789	-163.34466	0.00010116856	-0.39265573	0.88310922	-56.784927	
1.11	0.97488514	-28.525927	0.11001259	-165.32152	8.7640003e-005	-18.141517	0.87972683	-57.774132	
1.13	0.97443739	-29.092365	0.11622453	-167.37237	9.7241467e-005	-0.72837037	0.87605761	-58.753241	
1.15	0.97398705	-29.657014	0.12242998	-169.42152	0.00010683185	16.686483	0.87238634	-59.729934	
1.17	0.97361543	-30.225357	0.12883335	-171.54691	0.00010319262	30.909088	0.8686798	-60.705902	
1.19	0.97332226	-30.797367	0.13543473	-173.74859	8.6348185e-005	41.939411	0.86493729	-61.681183	
1.21	0.97303127	-31.367289	0.14203106	-175.94869	6.9525375e-005	52.971306	0.86119298	-62.653905	
1.23	0.97255672	-31.935158	0.14859679	-178.25525	7.7450978e-005	23.448753	0.85763527	-63.612463	
1.25	0.97208458	-32.500917	0.15515855	179.4397	8.5369536e-005	-6.0722997	0.85407426	-64.568569	
1.27	0.9715161	-33.07794	0.16160945	177.0965	9.8390542e-005	-30.279504	0.85043062	-65.524189	
1.29	0.97085143	-33.66618	0.16795039	174.7151	0.00011650726	-49.172902	0.84670354	-66.479375	
1.31	0.97018912	-34.252255	0.17428954	172.33507	0.00013460969	-68.064932	0.84297073	-67.432281	
1.33	0.96964554	-34.839917	0.18037333	169.85201	0.00011908105	-45.795991	0.83930214	-68.364005	
1.35	0.9691038	-35.425414	0.1864566	167.37023	0.00010356891	-23.52577	0.83562635	-69.293605	
1.37	0.96857845	-36.014405	0.19210644	164.864	9.5281934e-005	-31.040003	0.83191248	-70.224759	
1.39	0.96806918	-36.606869	0.19732405	162.33326	9.4211098e-005	-68.338736	0.82815945	-71.157534	
1.41	0.96756112	-37.197142	0.20254365	159.80367	9.3143731e-005	-105.63633	0.82439646	-72.088365	
1.43	0.96695978	-37.79279	0.20667114	157.25523	6.9935643e-005	-100.49677	0.82059904	-73.009726	
1.45	0.96635972	-38.386256	0.21080242	154.70783	4.6743256e-005	-95.356175	0.81679026	-73.929292	
1.47	0.96571016	-38.986998	0.21428818	152.17963	3.8376764e-005	-84.380369	0.813006	-74.843366	
1.49	0.96501104	-39.595001	0.21712936	149.67061	4.4824419e-005	-67.569392	0.80924557	-75.752035	
1.51	0.96431289	-40.200831	0.21997631	147.16247	5.1270898e-005	-50.75753	0.80547149	-76.659149	
1.53	0.96365448	-40.823138	0.22117591	144.75584	7.5725265e-005	-74.844161	0.80170902	-77.556858	
1.55	0.96299641	-41.443266	0.22238253	142.35	0.00010017506	-98.929999	0.79793124	-78.453192	
1.57	0.96233183	-42.066846	0.22276206	140.03112	0.00010302015	-101.86888	0.79417641	-79.348229	
1.59	0.96166061	-42.693889	0.22231491	137.79914	8.4267052e-005	-83.660861	0.79044384	-80.242059	
1.61	0.9609892	-43.318812	0.22187554	135.56778	6.5518572e-005	-65.452217	0.78669367	-81.134791	
1.63	0.96032453	-43.949129	0.21982045	133.57292	7.6928185e-005	-46.84308	0.78298716	-82.007645	
1.65	0.95965924	-44.577374	0.21777303	131.57858	8.8340915e-005	-28.233424	0.77926196	-82.879584	
1.67	0.95890742	-45.218407	0.21497144	129.73555	0.00011936078	-34.79645	0.77557377	-83.756164	
1.69	0.95806868	-45.872243	0.21141553	128.04378	0.00016999581	-66.532224	0.77192172	-84.637544	
1.71	0.95722822	-46.524058	0.20786663	126.35235	0.00022065043	-98.267653	0.76824831	-85.518353	
1.73	0.9564065	-47.177536	0.20313549	125.09328	0.00016955883	-92.506723	0.76466405	-86.387309	
1.75	0.95558304	-47.829073	0.19841015	123.83444	0.00011845335	-86.745559	0.76105782	-87.255876	
1.77	0.9547291	-48.488034	0.19327771	122.84009	0.00010053802	-89.227914	0.75742371	-88.124168	
1.79	0.95384441	-49.154446	0.18773734	122.11015	0.00011583642	-99.953854	0.75376104	-88.99229	
1.81	0.95295721	-49.81903	0.18220069	121.38025	0.00013114901	-110.67975	0.75007449	-89.860328	
1.83	0.95205515	-50.500415	0.17621972	121.19156	0.00014099072	-114.72844	0.7464667	-90.72464	
1.85	0.95114774	-51.180196	0.17024082	121.00284	0.00015084542	-118.77716	0.74283447	-91.589284	
1.87	0.95009976	-51.869439	0.16414182	121.20027	0.00018841062	-118.29373	0.73920051	-92.448536	
1.89	0.94891096	-52.568186	0.15792182	121.78378	0.0002537289	-113.27822	0.73556459	-93.302495	
1.91	0.94771821	-53.265346	0.15170178	122.36701	0.00031912488	-108.26299	0.73190286	-94.156948	
1.93	0.94665968	-53.975767	0.14573442	123.88674	0.0003227334	-110.20726	0.72831821	-95.012187	
1.95	0.9455964	-54.68474	0.13976591	125.40608	0.00032635933	-112.15192	0.72470703	-95.868183	
1.97	0.94447294	-55.405047	0.13425006	127.53165	0.00030464966	-115.17035	0.72113854	-96.719138	
1.99	0.94328876	-56.136772	0.12918719	130.26338	0.00025755202	-119.26262	0.71761265	-97.565209	
2.01	0.94209863	-56.867252	0.12412237	132.9945	0.00021039725	-123.3555	0.71405946	-98.412399	
2.03	0.94087609	-57.6114	0.12108315	137.1094	0.00027747758	-118.5206	0.71042931	-99.26459	
2.05	0.93964683	-58.354468	0.11804398	141.22354	0.00034467819	-113.68646	0.70677095	-100.11814	
2.07	0.93838328	-59.105791	0.11656497	145.82315	0.00038596943	-112.33085	0.70309029	-100.97321	
2.09	0.93708488	-59.865468	0.11665002	150.90817	0.00040128863	-114.45383	0.69938709	-101.82992	
2.11	0.93577844	-60.624334	0.11673997	155.9922	0.00041665307	-116.5778	0.69565487	-102.68837	
2.13	0.93420854	-61.407897	0.12082046	161.48398	0.00038743158	-111.30202	0.69189996	-103.53266	
2.15	0.93262912	-62.19086	0.12491434	166.97459	0.00035816502	-106.02741	0.68811572	-104.37893	
2.17	0.93101409	-62.986309	0.13196999	171.93813	0.00035648962	-107.98987	0.68420376	-105.22897	
2.19	0.92936282	-63.794375	0.14199826	176.37449	0.000382497	-117.18951	0.68016352	-106.08291	
2.21	0.92770043	-64.602198	0.15205577	-179.1906	0.00040858075	-126.3906	0.67609298	-106.93918	
2.23	0.92612166	-65.432133	0.16553041	-176.55601	0.00042161068	-121.42401	0.6721792	-107.75525	
2.25	0.92453083	-66.262088	0.17904494	-173.92295	0.00043468926	-116.45895	0.66823649	-108.57376	
2.27	0.92283513	-67.101192	0.19375631	-171.73902	0.0004384523	-113.86502	0.6643141	-109.39872	
2.29	0.92103355	-67.949628	0.20967137	-170.00435	0.00043286351	-113.64235	0.66041213	-110.23038	
2.31	0.9192179	-68.798493	0.2256383	-168.2715	0.00042727534	-113.4215	0.65648131	-111.06493	
2.33	0.91713156	-69.688849	0.2448346	-167.21609	0.00038667488	-116.73809	0.65240682	-111.87825	
2.35	0.91502889	-70.579982	0.26409658	-166.1627	0.00034596809	-120.0567	0.64830379	-112.69458	
2.37	0.91291115	-71.490703	0.28462948	-165.41472	0.00035971439	-118.67072	0.64421001	-113.51214	
2.39	0.91077757	-72.421222	0.30644198	-164.97225	0.00042816862	-112.58025	0.64012591	-114.33102	
2.41	0.90862577	-73.353028	0.32833538	-164.53206	0.00049685845	-106.49206	0.63601403	-115.15325	
2.43	0.90640614	-74.285889	0.35309215	-164.3943	0.00052409722	-107.1143	0.63178679	-115.97434	
2.45	0.90416706	-75.2204	0.37794368	-164.25899	0.00055144454	-107.73899	0.62753229	-116.79905	
2.47	0.90166456	-76.181056	0.4042932	-164.27588	0.00055906571	-107.68188	0.62332555	-117.61368	
2.49	0.89889602	-77.168127	0.43215206	-164.44513	0.00054685749	-106.94313	0.61916758	-118.41827	
2.51	0.89610369	-78.157487	0.46012471	-164.61715	0.00053462044	-106.20715	0.61498436	-119.22673	
2.53	0.89325994	-79.179745	0.4916282	-164.99552	0.00059214983	-103.31752	0.61069279	-120.03865	
2.55	0.890391	-80.204745	0.52326422	-165.37685	0.00064991319	-100.43085	0.60637671	-120.85464	
2.57	0.88727001	-81.258932	0.5567212	-165.85709	0.00067047734	-98.537092	0.60202572	-121.66237	
2.59	0.88389379	-82.342716	0.5920135	-166.43645	0.00065362468	-97.636449	0.59764067	-122.46194	
2.61	0.88048727	-83.430058	0.62746157	-167.01912	0.00063671801	-96.739124	0.59323288	-123.26585	
2.63	0.87698785	-84.540295	0.66690596	-167.76511	0.00063682088	-97.033113	0.58870498	-124.05281	
2.65	0.87345648	-85.654592	0.70652619	-168.51457	0.00063693568	-97.330566	0.58415564	-124.84419	
2.67	0.8697366	-86.805698	0.74827596	-169.33545	0.00066347633	-95.65145	0.57960286	-125.63798	
2.69	0.86582539	-87.994062	0.79217312	-170.22797	0.00071661468	-91.995973	0.57504728	-126.43423	
2.71	0.86187771	-89.187421	0.83627267	-171.12432	0.000769995	-88.344321	0.57047215	-127.2352	
2.73	0.85724095	-90.412435	0.88470293	-172.10184	0.00080382288	-90.425842	0.56580714	-127.9942	
2.75	0.85256264	-91.643075	0.93335498	-173.08339	0.00083780685	-92.511389	0.56112496	-128.7579	
2.77	0.84782514	-92.910841	0.98474528	-174.11888	0.00086536846	-92.910877	0.55640197	-129.52621	
2.79	0.84302675	-94.216276	1.0388948	-175.20848	0.00088646438	-91.624485	0.55163864	-130.29921	
2.81	0.83818418	-95.528448	1.0932933	-176.30242	0.00090765685	-90.342415	0.5468602	-131.07721	
2.83	0.8326732	-96.898114	1.1530864	-177.49844	0.0010063469	-90.142441	0.54206664	-131.84698	
2.85	0.82711332	-98.275295	1.2131506	-178.69902	0.001105492	-89.947024	0.53726053	-132.62186	
2.87	0.82126483	-99.685681	1.2763654	-179.95245	0.0012058108	-89.484448	0.53246386	-133.3739	
2.89	0.81512453	-101.12982	1.3427474	178.74116	0.0013073061	-88.75484	0.52767786	-134.10293	
2.91	0.80893153	-102.58258	1.4094163	177.43005	0.001409254	-88.029955	0.52288223	-134.83703	
2.93	0.80191003	-104.1075	1.481916	176.01081	0.0015073814	-87.197185	0.51791467	-135.57507	
2.95	0.79483031	-105.64198	1.5547139	174.58667	0.0016059271	-86.369327	0.51293921	-136.31835	
2.97	0.78733381	-107.21832	1.6308682	173.12471	0.001709199	-86.217288	0.50797728	-137.04069	
2.99	0.77941725	-108.83718	1.7103876	171.62485	0.0018172131	-86.741146	0.5030304	-137.74197	
3.01	0.77144048	-110.46689	1.7901979	170.12008	0.0019256442	-87.269924	0.49807935	-138.44855	
3.03	0.76272147	-112.17267	1.8767931	168.49557	0.0020363705	-88.510431	0.49316308	-139.14784	
3.05	0.75394065	-113.89044	1.9636743	166.86611	0.0021474824	-89.755893	0.4882454	-139.85269	
3.07	0.74469202	-115.65914	2.0541002	165.19629	0.0022723775	-90.777712	0.48330997	-140.53809	
3.09	0.73497402	-117.4795	2.1480642	163.48612	0.0024111089	-91.575876	0.47835782	-141.20385	
3.11	0.72519788	-119.31328	2.2422683	161.77126	0.002550249	-92.378739	0.4734074	-141.87518	
3.13	0.71425238	-121.25094	2.3427822	159.95935	0.0027234107	-92.682649	0.46852078	-142.5156	
3.15	0.70325075	-123.2033	2.4434885	158.14298	0.0028970173	-92.991023	0.46363827	-143.16154	
3.17	0.69184427	-125.20238	2.5476409	156.28465	0.0030825386	-93.911349	0.45875892	-143.80458	
3.19	0.68003666	-127.24911	2.6552109	154.38457	0.0032799675	-95.443427	0.45388448	-144.44505	
3.21	0.66818916	-129.31221	2.7628725	152.4808	0.0034777298	-96.979202	0.44901809	-145.09164	
3.23	0.65509637	-131.48833	2.8769722	150.49406	0.0036890294	-98.273941	0.44448561	-145.67248	
3.25	0.64197551	-133.68254	2.9910772	148.50418	0.0039005296	-99.571819	0.43996184	-146.25947	
3.27	0.62824506	-135.94438	3.1073922	146.4704	0.0040715065	-100.9196	0.43532356	-146.84989	
3.29	0.61391262	-138.27506	3.2258474	144.39317	0.0042016912	-102.31683	0.43056959	-147.44386	
3.31	0.59958088	-140.62626	3.3441344	142.31408	0.0043316037	-103.71592	0.42582343	-148.04449	
3.33	0.58419365	-143.0963	3.4661424	140.17044	0.0045952529	-106.08356	0.42161077	-148.59293	
3.35	0.56883536	-145.58993	3.5878564	138.02598	0.0048586812	-108.45202	0.41740575	-149.14898	
3.37	0.55303523	-148.15976	3.7111221	135.84089	0.0050973564	-110.15711	0.41318087	-149.69887	
3.39	0.53681309	-150.80732	3.8358586	133.61587	0.0053110855	-111.19813	0.40893747	-150.24205	
3.41	0.52067285	-153.48203	3.9601104	131.39186	0.0055241733	-112.23814	0.40470264	-150.79249	
3.43	0.50362081	-156.28749	4.0858448	129.11017	0.0057604577	-114.08383	0.40078689	-151.31807	
3.45	0.48669212	-159.12503	4.2109655	126.8309	0.0059958807	-115.9271	0.3968747	-151.8515	
3.47	0.46943264	-162.06947	4.3354079	124.53235	0.0062461673	-117.83165	0.39302439	-152.37502	
3.49	0.45187283	-165.12508	4.459096	122.21545	0.0065111619	-119.79655	0.38923346	-152.8887	
3.51	0.43450908	-168.22204	4.5820181	119.90311	0.006774961	-121.75689	0.38544051	-153.41053	
3.53	0.41673824	-171.49535	4.7026226	117.56819	0.0070378784	-124.02781	0.38205941	-153.95463	
3.55	0.39921857	-174.81926	4.8223963	115.2393	0.0072994294	-126.2927	0.37867144	-154.50671	
3.57	0.38188737	-178.27569	4.9400583	112.90124	0.0075684062	-128.41076	0.3753366	-155.0544	
3.59	0.36478131	178.1294	5.0555908	110.55477	0.0078447154	-130.38123	0.37205439	-155.59742	
3.61	0.34800778	174.46857	5.1702842	108.21608	0.0081195025	-132.34392	0.36876253	-156.14779	
3.63	0.33144797	170.51059	5.2801844	105.85651	0.0083854624	-134.29549	0.36563715	-156.71095	
3.65	0.31529144	166.47253	5.3892695	103.50607	0.008649879	-136.23793	0.36250118	-157.28063	
3.67	0.29961223	162.22097	5.4946474	101.17467	0.0088966445	-138.24533	0.35942162	-157.85081	
3.69	0.28445483	157.74902	5.5963553	98.863025	0.0091258505	-140.31698	0.35639864	-158.42061	
3.71	0.26978359	153.17672	5.697403	96.561867	0.0093537755	-142.37813	0.35336512	-158.99507	
3.73	0.25647073	148.17473	5.7923229	94.263822	0.0095987279	-144.34818	0.35034809	-159.59426	
3.75	0.24370437	143.07417	5.8867148	91.977056	0.0098425045	-146.30694	0.34732288	-160.19738	
3.77	0.23214536	137.66269	5.97634	89.712928	0.010065071	-148.36307	0.34438264	-160.8074	
3.79	0.22181827	131.96703	6.0612785	87.472032	0.010266627	-150.51597	0.34153085	-161.42314	
3.81	0.21204415	126.21177	6.1459913	85.242897	0.010467596	-152.6571	0.33867787	-162.04042	
3.83	0.20451889	119.97164	6.2229304	83.035474	0.010709693	-154.32453	0.33571243	-162.67771	
3.85	0.19747561	113.76078	6.2998631	80.840195	0.010951389	-155.9798	0.33275087	-163.31687	
3.87	0.1921694	107.31943	6.3727651	78.674076	0.011185871	-157.68992	0.32981414	-163.96375	
3.89	0.18847929	100.75243	6.441726	76.53777	0.011413301	-159.45423	0.32690595	-164.61772	
3.91	0.18493643	94.379247	6.5110686	74.41328	0.011641053	-161.20672	0.32401038	-165.27108	
3.93	0.18473023	87.846098	6.573137	72.33458	0.011819623	-162.97342	0.32117733	-165.92425	
3.95	0.18429898	81.63015	6.6357826	70.267245	0.011999016	-164.72876	0.31836544	-166.57682	
3.97	0.18548621	75.595806	6.6951476	68.227555	0.012175514	-166.59644	0.31557392	-167.28904	
3.99	0.18807625	69.768812	6.7511945	66.216039	0.012349041	-168.57596	0.31281086	-168.06071	
4.01	0.18997825	64.255687	6.8080538	64.214151	0.012523854	-170.54585	0.31008379	-168.83081	
4.03	0.19442026	59.054066	6.8560383	62.2653	0.01270727	-172.1107	0.30727475	-169.46484	
4.05	0.19801409	54.074168	6.9048431	60.325464	0.012891962	-173.66654	0.30449921	-170.09735	
4.07	0.20243153	49.472246	6.9517703	58.40643	0.01307303	-175.30757	0.30162811	-170.73805	
4.09	0.20772901	45.14828	6.9966112	56.50894	0.013250093	-177.03306	0.29866636	-171.38675	
4.11	0.21220545	40.879416	7.0422375	54.619464	0.013428443	-178.75054	0.29574869	-172.03326	
4.13	0.21833498	37.265384	7.0820007	52.77968	0.013603963	179.70568	0.29272397	-172.66804	
4.15	0.22380577	33.608327	7.1224032	50.947626	0.013780518	178.16963	0.28974602	-173.30117	
4.17	0.22940303	30.252782	7.1608993	49.147543	0.013932248	176.67754	0.28666656	-173.94362	
4.19	0.23526114	27.175088	7.197344	47.379084	0.014058939	175.22908	0.28348849	-174.59653	
4.21	0.24060215	24.022133	7.2344521	45.616895	0.014186839	173.7869	0.28036403	-175.24909	
4.23	0.24634498	21.412079	7.2679969	43.894744	0.014375246	172.23274	0.27733857	-175.95323	
4.25	0.25170373	18.731903	7.3021174	42.177614	0.014564631	170.68361	0.27437158	-176.65606	
4.27	0.25690425	16.213748	7.334237	40.484535	0.014723139	169.12653	0.27153505	-177.34307	
4.29	0.26201569	13.865995	7.3642783	38.814876	0.014850678	167.56088	0.26883029	-178.01477	
4.31	0.26682598	11.46131	7.3949084	37.14872	0.014979344	165.99872	0.26618795	-178.68572	
4.33	0.27160797	9.4163689	7.4225734	35.534375	0.015062474	164.78037	0.26360114	-179.30041	
4.35	0.27616267	7.3266501	7.4507524	33.922623	0.015146629	163.56462	0.26107004	-179.9156	
4.37	0.28053691	5.3329206	7.4780679	32.330498	0.015287278	162.2305	0.25848776	179.48288	
4.39	0.28476368	3.4412743	7.5044669	30.757662	0.015484281	160.77766	0.2558575	178.89611	
4.41	0.2888091	1.5133821	7.5313631	29.186515	0.015682258	159.32652	0.25328901	178.31018	
4.43	0.29261215	-0.16487561	7.5567242	27.658984	0.015751477	158.19898	0.25085699	177.73759	
4.45	0.29627566	-1.8716005	7.5825125	26.132609	0.015821583	157.07261	0.24847872	177.16351	
4.47	0.29983148	-3.5094317	7.6072425	24.621403	0.015923494	155.8114	0.24610874	176.6013	
4.49	0.30329558	-5.074669	7.6308763	23.125212	0.016057131	154.41521	0.24375098	176.05129	
4.51	0.30664605	-6.663615	7.6549105	21.629676	0.016191613	153.01968	0.24145255	175.5	
4.53	0.30941055	-8.080826	7.6770232	20.18964	0.016348644	151.61164	0.23926808	174.98787	
4.55	0.3120813	-9.5178302	7.6994781	18.749868	0.016506428	150.20387	0.23714152	174.47439	
4.57	0.31466276	-10.909541	7.7221403	17.315179	0.01665585	148.94518	0.23505211	173.96629	
4.59	0.31716636	-12.254257	7.7449841	15.885514	0.01679686	147.83551	0.23299476	173.46332	
4.61	0.3195982	-13.617775	7.7681339	14.456037	0.016938569	146.72604	0.23098601	172.96027	
4.63	0.32170858	-14.857105	7.7898836	13.0756	0.017024895	145.5296	0.22915335	172.51316	
4.65	0.3237575	-16.111411	7.8119074	11.694946	0.017111841	144.33295	0.22736712	172.06275	
4.67	0.32566342	-17.324005	7.8337977	10.32476	0.01723072	143.15476	0.22556807	171.60776	
4.69	0.32743161	-18.493679	7.8555295	8.9650204	0.017381508	141.99502	0.22375665	171.14842	
4.71	0.32914902	-19.676969	7.8775046	7.604904	0.017532896	140.8349	0.22199174	170.68577	
4.73	0.33046397	-20.786673	7.9000271	6.2654004	0.017615202	139.6154	0.2205308	170.25849	
4.75	0.33173547	-21.908532	7.92276	4.9253693	0.017698	138.39537	0.21911036	169.82685	
4.77	0.33287174	-22.992579	7.9442435	3.6038181	0.017788123	137.28782	0.217675	169.3949	
4.79	0.33387802	-24.038099	7.9644553	2.3007674	0.017885535	136.29277	0.21622166	168.96304	
4.81	0.3348515	-25.094977	7.9848457	0.99713003	0.017983389	135.29713	0.21480317	168.52698	
4.83	0.33569758	-26.096537	8.0068453	-0.28893306	0.01809907	134.09907	0.21372601	168.13003	
4.85	0.33651358	-27.108131	8.0290028	-1.5756561	0.018215166	132.90034	0.21268291	167.72845	
4.87	0.33711329	-28.103119	8.05094	-2.8539219	0.018331415	131.73808	0.21159126	167.32514	
4.89	0.33749893	-29.081276	8.0726402	-4.1237362	0.018447782	130.61226	0.21044913	166.91978	
4.91	0.33786101	-30.069181	8.0944708	-5.3942731	0.018564509	129.48573	0.20933629	166.50899	
4.93	0.33794276	-30.978795	8.1142333	-6.6443502	0.018694981	128.63565	0.20842961	166.10815	
4.95	0.33800677	-31.89767	8.1340978	-7.8951147	0.018825768	127.78489	0.2075476	165.70373	
4.97	0.33804586	-32.8116	8.1554309	-9.132887	0.018957182	126.77311	0.20683645	165.32487	
4.99	0.33805996	-33.719634	8.1782246	-10.357704	0.019089202	125.6003	0.2062947	164.97031	
5.01	0.33805945	-34.63575	8.2011048	-11.58328	0.019221504	124.42672	0.20577368	164.61042	
5.03	0.33769022	-35.507388	8.2219012	-12.803388	0.019298783	123.59461	0.20503976	164.20081	
5.05	0.33731391	-36.387349	8.2427621	-14.024175	0.019376242	122.76183	0.20432042	163.78738	
5.07	0.33684158	-37.247417	8.2640015	-15.234862	0.019461187	121.76714	0.20385063	163.3892	
5.09	0.33627258	-38.086443	8.2856039	-16.435443	0.019553592	120.61056	0.20362835	163.00575	
5.11	0.33569893	-38.932257	8.3072445	-17.636697	0.019646129	119.4533	0.20341549	162.61779	
5.13	0.33492654	-39.765549	8.3297108	-18.8276	0.019735569	118.3504	0.20317188	162.21571	
5.15	0.33415327	-40.605526	8.3522029	-20.019142	0.019825106	117.24686	0.20293441	161.80948	
5.17	0.33321748	-41.427125	8.3738017	-21.196554	0.019951921	116.22145	0.20280652	161.42007	
5.19	0.332118	-42.230316	8.3944936	-22.35981	0.02011604	115.27419	0.2027893	161.04838	
5.21	0.33101925	-43.040044	8.4151877	-23.523656	0.020280273	114.32634	0.20277696	160.6737	
5.23	0.32978861	-43.835424	8.4375001	-24.696943	0.020372939	113.30106	0.2027761	160.25796	
5.25	0.32856454	-44.636783	8.4598045	-25.870749	0.02046562	112.27525	0.20277343	159.83959	
5.27	0.32725393	-45.421044	8.4818543	-27.03195	0.020554303	111.27805	0.20286425	159.41781	
5.29	0.32585881	-46.18792	8.5036375	-28.180463	0.020638953	110.30954	0.20304615	158.99384	
5.31	0.32448345	-46.960959	8.525371	-29.329103	0.020723509	109.3409	0.20321478	158.57159	
5.33	0.32297951	-47.741578	8.5478865	-30.475993	0.020854332	108.44601	0.20362813	158.15356	
5.35	0.32148827	-48.52779	8.5703672	-31.623275	0.020985135	107.55073	0.20403401	157.73536	
5.37	0.3199075	-49.290389	8.5924359	-32.764806	0.021054614	106.68519	0.20428261	157.30453	
5.39	0.31824163	-50.029154	8.6140903	-33.900496	0.021062694	105.8495	0.2043701	156.86185	
5.41	0.31659735	-50.773148	8.6357037	-35.036422	0.02107064	105.01358	0.20444263	156.42026	
5.43	0.31469326	-51.520793	8.6587931	-36.160166	0.021247225	103.92183	0.20511498	155.96685	
5.45	0.31280627	-52.272367	8.6818199	-37.284114	0.021423739	102.82989	0.20577205	155.51354	
5.47	0.3107923	-53.01478	8.7037963	-38.404965	0.021551085	101.75903	0.2064069	155.05443	
5.49	0.30865571	-53.748176	8.7247167	-39.522652	0.021629201	100.70935	0.2070159	154.59088	
5.51	0.30654483	-54.485514	8.7455654	-40.640416	0.021707154	99.659584	0.20760214	154.12938	
5.53	0.30446002	-55.206915	8.7680035	-41.746625	0.021764054	98.917375	0.20819702	153.64564	
5.55	0.30240197	-55.932885	8.7903733	-42.852845	0.021820785	98.175155	0.2087716	153.16599	
5.57	0.30023042	-56.65755	8.8124632	-43.957905	0.021902918	97.310095	0.20941247	152.66699	
5.59	0.2979453	-57.38003	8.8342655	-45.061758	0.02201045	96.322242	0.21011715	152.1481	
5.61	0.29569032	-58.105839	8.8559875	-46.165498	0.022117803	95.334502	0.21079538	151.63298	
5.63	0.2931814	-58.791993	8.8783267	-47.258426	0.022161307	94.417574	0.21150332	151.10484	
5.65	0.29070558	-59.481455	8.9005837	-48.351135	0.022204602	93.500865	0.21218281	150.58196	
5.67	0.28819785	-60.193395	8.9229577	-49.446571	0.022292454	92.603429	0.21295754	150.04828	
5.69	0.28565723	-60.927862	8.9454412	-50.544712	0.022424863	91.725288	0.21382783	149.50365	
5.71	0.28315096	-61.665572	8.9678339	-51.642561	0.022557063	90.847439	0.21466791	148.96418	
5.73	0.28043512	-62.371977	8.9888029	-52.728202	0.022689555	90.037798	0.21538651	148.43254	
5.75	0.27775372	-63.081309	9.0096834	-53.813483	0.022821836	89.228517	0.21607453	147.90591	
5.77	0.27496122	-63.762239	9.030625	-54.897142	0.022915847	88.238858	0.21683006	147.32919	
5.79	0.27206296	-64.413659	9.0516269	-55.979051	0.022971577	87.068949	0.21764681	146.70399	
5.81	0.26920803	-65.0664	9.0725434	-57.060401	0.02302709	85.899599	0.21842306	146.08585	
5.83	0.26630902	-65.777213	9.094982	-58.134322	0.023042309	85.161678	0.21914535	145.53014	
5.85	0.26345038	-66.491486	9.1173348	-59.207724	0.023057312	84.424276	0.21983376	144.98151	
5.87	0.2604849	-67.188787	9.139438	-60.284947	0.023107408	83.615053	0.22055744	144.39593	
5.89	0.25741177	-67.868052	9.1612918	-61.365922	0.023192594	82.734078	0.22131436	143.77328	
5.91	0.25438062	-68.549225	9.183064	-62.446226	0.023277568	81.853774	0.22203241	143.15763	
5.93	0.25120188	-69.216344	9.2033858	-63.510583	0.023386611	80.925417	0.22279968	142.52651	
5.95	0.24806613	-69.884799	9.2236294	-64.574203	0.023495442	79.997797	0.22352593	141.90222	
5.97	0.24482117	-70.552965	9.2431315	-65.641462	0.023599688	79.038538	0.22419985	141.25681	
5.99	0.24147431	-71.220805	9.2618921	-66.712095	0.023699348	78.047905	0.22481547	140.59201	