!
! Hittite Microwave Corporation
! 20 Alpha Road
! Chelmsford, MA 01824
! http://www.hittite.com
! Tel: 978-250-3343
! Fax: 978-250-3373
! 
! Device:      HMC902LP3E
! Description: GaAs pHEMT MMIC Low Noise Amplifier
! Frequency:   5.00 -  10.00 GHz
! Package:     LP3  - 3x3 mm Quad Flatpack No-Lead (QFN) Plastic Package: 16 pin
! Ports:       2 RF, 4 DC
!              Pin  3 = RF In  = Port 1
!              Pin  5 = Vgg1 (Optional)
!              Pin  6 = Vgg2 (Optional)
!              Pin 10 = RF Out  = Port 2
!              Pin 14 = Vdd2
!              Pin 15 = Vdd1
!
!
! Voltages:    Vdd  = Vdd1 = Vdd2 = +3.50  Volts
!              Idd  = Idd1 + Idd2 = 87.49  mA
!              Vgg  = Vgg1 = Vgg2 = -0.46  Volts
!              Igg  = Igg1 + Igg2 = -0.12  mA
!
! Data:    The device was measured on evaluation board 128395.
!          Data was collected using a calibrated network analyzer.
!          The evaluation circuit board was modeled and simulated.  This was use
!          to removed the evaluation board circuit from the measured data.
!          The reference plane is the edge of the package pin.
!
! Misc:        
!
! Date Measured:  2010-08-30
! Date:           2010-09-07 MJV
! Note: 
!   Hittite supplies this data as a sample of measured data at the package pin for
!   for this package product.  Your particular data for this product may vary.
!   Data was taken at 25 degrees C.
!   Hittite reserves the right to change this data at anytime.
!
# GHz S MA R 50

0.01	0.9864659	-0.43155724	0.0012300817	68.199123	0.00039156958	-125.29088	0.98645457	-0.55155638	
0.03	0.98543714	-0.97533779	0.0007873824	88.004267	0.00029324956	-175.90573	0.98636472	-1.6433001	
0.05	0.98422154	-1.5068843	0.00034441138	107.82226	0.00019484164	133.49226	0.9860885	-2.7227026	
0.07	0.98333458	-2.0031303	0.00012239021	153.67414	0.00012311858	78.68414	0.98581661	-3.7746334	
0.09	0.9828675	-2.4717396	0.00012132047	-134.44758	7.8093693e-005	19.662421	0.9856409	-4.8067077	
0.11	0.9824143	-2.9415169	0.00012024901	-62.569809	3.3069797e-005	-39.359809	0.98548036	-5.8396819	
0.13	0.98225373	-3.4132873	0.0002295756	-75.201819	5.5023102e-005	9.6561807	0.9853963	-6.8823194	
0.15	0.98213309	-3.8838691	0.00033890076	-87.832521	7.6976215e-005	58.673479	0.9853532	-7.9233916	
0.17	0.98200086	-4.3619812	0.00049067688	-94.052181	8.0362303e-005	47.981819	0.98497625	-8.9775378	
0.19	0.98197034	-4.8410406	0.00068490449	-93.854353	6.5196038e-005	-22.412353	0.98437922	-10.038132	
0.21	0.98196297	-5.3191674	0.00087906119	-93.655376	5.0034447e-005	-92.805376	0.98380668	-11.097241	
0.23	0.98181018	-5.8062794	0.001179261	-96.256844	7.2258365e-005	-162.00284	0.9830693	-12.168693	
0.25	0.9816424	-6.2938911	0.001479253	-98.858308	9.4467629e-005	128.79969	0.98231884	-13.239958	
0.27	0.98159315	-6.7826979	0.0018519706	-101.03867	0.00011110184	89.409327	0.98148906	-14.301736	
0.29	0.98165803	-7.2728875	0.0022973241	-102.79811	0.00012216461	79.825886	0.98057571	-15.35418	
0.31	0.9816959	-7.7636925	0.0027422374	-104.55745	0.00013321252	70.242549	0.97963816	-16.406405	
0.33	0.98175612	-8.2578091	0.0033750325	-108.05535	9.2819719e-005	97.600653	0.97852775	-17.484947	
0.35	0.98182697	-8.7511104	0.0040072617	-111.55203	5.2457603e-005	124.95997	0.97743034	-18.561741	
0.37	0.98187793	-9.2421619	0.0048173253	-114.98375	3.0403132e-005	161.12625	0.9760691	-19.627367	
0.39	0.98191501	-9.7306957	0.0058049454	-118.35029	2.6634473e-005	-153.90029	0.97445041	-20.681541	
0.41	0.98196002	-10.218356	0.0067915125	-121.71549	2.2868965e-005	-108.92549	0.97284286	-21.733805	
0.43	0.98190194	-10.713166	0.0084750757	-129.36326	5.3611636e-005	-54.153259	0.97076071	-22.756497	
0.45	0.98183358	-11.207507	0.010156577	-137.00979	8.432027e-005	0.62021149	0.96867329	-23.777647	
0.47	0.98173379	-11.708909	0.010103173	-148.89528	9.7467958e-005	45.516723	0.96758882	-24.784846	
0.49	0.98160281	-12.217322	0.008317795	-165.01973	9.3083398e-005	80.536268	0.96750535	-25.778044	
0.51	0.98146768	-12.724951	0.0065343252	178.85724	8.8701455e-005	115.55724	0.96741976	-26.769336	
0.53	0.98147231	-13.227647	0.0069484253	-161.01831	7.7773149e-005	91.473685	0.96581841	-27.936187	
0.55	0.98148229	-13.729242	0.0073618794	-140.89214	6.6857954e-005	67.391857	0.96422646	-29.100446	
0.57	0.98141612	-14.233753	0.0084799447	-130.19626	8.2890983e-005	64.567745	0.96203606	-30.220891	
0.59	0.98126464	-14.741351	0.010301105	-128.93065	0.00012581694	83.001354	0.95924044	-31.297805	
0.61	0.98111763	-15.24775	0.01211964	-127.66326	0.00016868239	101.43674	0.95645485	-32.372151	
0.63	0.98082064	-15.764947	0.013975298	-128.71406	0.00013487461	103.37794	0.95365245	-33.428318	
0.65	0.98052847	-16.280857	0.015828196	-129.76305	0.00010111345	105.32095	0.95085999	-34.481844	
0.67	0.98036582	-16.795436	0.01779447	-130.89829	8.1370253e-005	101.01171	0.94803852	-35.532697	
0.69	0.98033241	-17.308653	0.019873841	-132.11977	7.5615327e-005	90.450228	0.94518794	-36.580841	
0.71	0.98029939	-17.820589	0.021949953	-133.3394	6.9868047e-005	79.890601	0.94234367	-37.626326	
0.73	0.9800519	-18.343181	0.024239444	-134.90473	8.6273205e-005	55.557267	0.93938768	-38.673192	
0.75	0.97980831	-18.86432	0.026525368	-136.46817	0.00010265319	31.225827	0.93644056	-39.717244	
0.77	0.97963569	-19.384066	0.028980474	-137.97582	0.00010359376	6.4741826	0.93339412	-40.752691	
0.79	0.97953392	-19.902381	0.03160439	-139.42767	8.9130198e-005	-18.697674	0.93024833	-41.779519	
0.81	0.97943585	-20.419152	0.03422427	-140.87765	7.4688579e-005	-43.867649	0.92711093	-42.803483	
0.83	0.97925871	-20.953919	0.037182856	-142.42114	9.906812e-005	-27.767138	0.92373142	-43.840144	
0.85	0.9790822	-21.487138	0.04013687	-143.96269	0.00012341032	-11.664693	0.9203578	-44.873966	
0.87	0.97879313	-22.018886	0.043260621	-145.55825	0.00012495195	15.045752	0.91699371	-45.901156	
0.89	0.97839795	-22.548977	0.046554043	-147.20789	0.00010374605	52.364105	0.91364295	-46.92156	
0.91	0.97800642	-23.077373	0.0498427	-148.85566	8.2572715e-005	89.684339	0.91029891	-47.939051	
0.93	0.97777477	-23.619722	0.053563665	-150.50135	6.9983655e-005	87.982651	0.90664056	-48.953716	
0.95	0.97754649	-24.160284	0.057279455	-152.14518	5.7413879e-005	86.282819	0.90298836	-49.965457	
0.97	0.97735248	-24.702916	0.061201062	-153.86899	6.5166081e-005	70.777008	0.8993013	-50.981991	
0.99	0.97719008	-25.247661	0.065328048	-155.67275	9.3195559e-005	41.46525	0.89557746	-52.003384	
1.01	0.97702666	-25.790666	0.069449497	-157.47462	0.00012118507	12.155377	0.89185597	-53.021983	
1.03	0.97665351	-26.33571	0.07392957	-159.33478	0.00011817252	18.503222	0.88811028	-54.022354	
1.05	0.97628342	-26.878858	0.078404315	-161.19317	0.00011516565	24.852825	0.8843679	-55.019885	
1.07	0.97587881	-27.425941	0.083091512	-163.10969	0.00012286272	29.736314	0.88064178	-56.014549	
1.09	0.97543973	-27.976911	0.087990987	-165.08433	0.00014124229	33.153675	0.87693116	-57.006356	
1.11	0.97500373	-28.525902	0.092885369	-167.05728	0.00015959979	36.572721	0.87322183	-57.995384	
1.13	0.97457316	-29.092341	0.098011697	-169.10033	0.00012337232	32.365667	0.86929337	-58.974295	
1.15	0.97413999	-29.656989	0.10313282	-171.14171	8.7192195e-005	28.160287	0.86536278	-59.950783	
1.17	0.97377029	-30.223413	0.10835946	-173.25536	6.5601523e-005	25.132639	0.86143813	-60.928433	
1.19	0.9734638	-30.791591	0.11369178	-175.44131	5.8572701e-005	23.282694	0.85751861	-61.907278	
1.21	0.97315949	-31.357692	0.11902023	-177.62571	5.1553218e-005	21.434291	0.85359696	-62.88355	
1.23	0.97268038	-31.925575	0.12441586	-179.92456	7.1959684e-005	8.8354411	0.84965487	-63.845683	
1.25	0.97220366	-32.491345	0.12980847	177.77805	9.234582e-005	-3.7619516	0.84570911	-64.805338	
1.27	0.97166456	-33.066462	0.13511062	175.45243	0.00010829825	-15.687574	0.84177935	-65.764467	
1.29	0.97106314	-33.650887	0.14032299	173.09855	0.00011982489	-26.941455	0.83786469	-66.723127	
1.31	0.97046399	-34.233152	0.14553401	170.746	0.00013134378	-38.194	0.83394383	-67.679483	
1.33	0.96989038	-34.820858	0.15049803	168.3064	0.00011779451	-42.105596	0.82997	-68.610869	
1.35	0.96931869	-35.406394	0.15546183	165.86805	0.00010425964	-46.015955	0.82598849	-69.540102	
1.37	0.96877394	-35.995409	0.16007018	163.39122	0.00011194538	-49.50278	0.82196243	-70.472746	
1.39	0.96825593	-36.587878	0.16432406	160.87588	0.00014082826	-52.566117	0.81789076	-71.408853	
1.41	0.96773941	-37.178155	0.16857975	158.36164	0.00016969554	-55.628356	0.81380864	-72.342972	
1.43	0.96713357	-37.777599	0.17190899	155.83661	0.00011808885	-31.469386	0.80979921	-73.263851	
1.45	0.96652905	-38.374866	0.17524147	153.31258	6.6515014e-005	-7.309415	0.80577789	-74.182918	
1.47	0.96594216	-38.977495	0.17803588	150.7997	7.0742992e-005	-14.4143	0.80177151	-75.098336	
1.49	0.96537271	-39.585496	0.18029296	148.29792	0.00013073289	-52.784082	0.79777945	-76.010205	
1.51	0.96480371	-40.191354	0.18255483	145.79699	0.00019070335	-91.153007	0.79377298	-76.920527	
1.53	0.96402327	-40.809916	0.18343881	143.42145	0.00016673011	-81.02855	0.78974625	-77.821334	
1.55	0.96324348	-41.426301	0.18432862	141.04665	0.00014276867	-70.903351	0.78570334	-78.720715	
1.57	0.96250759	-42.048031	0.18453577	138.74271	0.0001290095	-65.083294	0.78170026	-79.613119	
1.59	0.96181529	-42.675112	0.18406052	136.50958	0.00012544883	-63.568416	0.77773646	-80.498641	
1.61	0.96112291	-43.300071	0.18359161	134.27705	0.00012189273	-62.052946	0.77375436	-81.383012	
1.63	0.96045423	-43.937915	0.18183142	132.29358	0.00015108175	-81.104422	0.76983702	-82.262618	
1.65	0.9597848	-44.573678	0.18007752	130.31059	0.00018027756	-100.15541	0.76589989	-83.141278	
1.67	0.95906329	-45.214703	0.17766407	128.47456	0.00017553053	-101.73944	0.76199307	-84.020719	
1.69	0.95828954	-45.861009	0.17459087	126.78541	0.00013683242	-85.85659	0.75811575	-84.901066	
1.71	0.95751449	-46.505301	0.17152326	125.09658	9.8129145e-005	-69.973424	0.75421639	-85.780763	
1.73	0.95673718	-47.155105	0.167505	123.86017	0.00012564978	-89.229826	0.75038231	-86.648665	
1.75	0.95595802	-47.80297	0.16349134	122.62398	0.00015318606	-108.48602	0.74652514	-87.516123	
1.77	0.95508526	-48.461971	0.15915133	121.64841	0.0001807484	-117.26559	0.74265701	-88.385138	
1.79	0.95411878	-49.132132	0.15448428	120.93341	0.00020834043	-115.56859	0.73877737	-89.255824	
1.81	0.95314987	-49.800459	0.14982011	120.21841	0.00023595823	-113.87159	0.73487278	-90.126373	
1.83	0.95222719	-50.481856	0.14476891	120.07248	0.00023544524	-119.16152	0.73104758	-90.993174	
1.85	0.9512992	-51.161647	0.1397192	119.92649	0.00023494067	-124.45151	0.72719683	-91.860262	
1.87	0.95030961	-51.850875	0.13461893	120.1527	0.00022683463	-123.6853	0.72333952	-92.723792	
1.89	0.94925804	-52.549587	0.12946745	120.75104	0.00021111597	-116.86296	0.71947529	-93.583876	
1.91	0.94820241	-53.246718	0.12431584	121.34908	0.0001953896	-110.04092	0.71558394	-94.444417	
1.93	0.94711906	-53.957162	0.11934425	122.88356	0.00022273245	-113.67444	0.71185371	-95.298259	
1.95	0.94603096	-54.666156	0.11437158	124.41764	0.00025011636	-117.30836	0.70809606	-96.152813	
1.97	0.94492102	-55.388334	0.10975711	126.57211	0.00026313475	-119.03589	0.70437185	-97.008024	
1.99	0.94378868	-56.123779	0.10550105	129.34688	0.00026176148	-118.85712	0.70068074	-97.864071	
2.01	0.94265037	-56.857978	0.1012432	132.12103	0.00026039692	-118.67897	0.6969611	-98.721224	
2.03	0.94143905	-57.598424	0.098695942	136.28236	0.00030012513	-112.41364	0.69306107	-99.579242	
2.05	0.94022103	-58.337792	0.096148549	140.4429	0.00033992936	-106.1491	0.68913141	-100.43858	
2.07	0.93897068	-59.087273	0.094866772	145.07884	0.00037123314	-107.01516	0.68513844	-101.29542	
2.09	0.93768744	-59.846964	0.094853742	150.19011	0.0003940183	-115.01189	0.68108192	-102.14988	
2.11	0.93639619	-60.605846	0.094844425	155.30038	0.00041686152	-123.00962	0.67699497	-103.00598	
2.13	0.93488902	-61.382039	0.098021749	160.8549	0.00040773289	-125.4991	0.67310792	-103.86794	
2.15	0.93337261	-62.157628	0.10120951	166.40824	0.00039860167	-127.98976	0.6691904	-104.73191	
2.17	0.93180659	-62.951231	0.10684992	171.4626	0.0003906091	-126.2274	0.66513165	-105.5918	
2.19	0.93019016	-63.762973	0.11495184	176.01788	0.00038375773	-120.21212	0.66093123	-106.44765	
2.21	0.92856264	-64.57447	0.12307705	-179.42827	0.00037690515	-114.19827	0.65669959	-107.3058	
2.23	0.92693187	-65.400695	0.13391725	-176.73137	0.00040299146	-111.60537	0.65252055	-108.13131	
2.25	0.92528907	-66.226933	0.14478916	-174.036	0.00042915708	-109.014	0.64831136	-108.95924	
2.27	0.9235827	-67.066036	0.15663589	-171.78158	0.00043941461	-109.47758	0.64412064	-109.79166	
2.29	0.92181177	-67.918201	0.16946294	-169.96824	0.00043370346	-112.99624	0.63994855	-110.6288	
2.31	0.92002684	-68.770803	0.18233123	-168.1567	0.00042799241	-116.5167	0.63574651	-111.46881	
2.33	0.91801094	-69.657412	0.19781092	-167.02669	0.00040475558	-110.95469	0.63142309	-112.29549	
2.35	0.915979	-70.54479	0.21334277	-165.89868	0.00038146499	-105.39468	0.62706999	-113.1252	
2.37	0.91393391	-71.446166	0.22991691	-165.08422	0.00038784445	-101.70022	0.62272751	-113.95224	
2.39	0.91187501	-72.361737	0.24753993	-164.5834	0.00042403002	-99.871401	0.61839628	-114.7767	
2.41	0.90979841	-73.27857	0.26522674	-164.0848	0.00046034381	-98.044803	0.61403661	-115.60453	
2.43	0.90766687	-74.218916	0.28529749	-163.87595	0.00046946189	-101.49595	0.6095537	-116.43513	
2.45	0.90551609	-75.160943	0.30544402	-163.66953	0.00047862497	-104.94953	0.60504268	-117.26939	
2.47	0.90310664	-76.125377	0.32677131	-163.61935	0.00052903764	-107.21535	0.60058737	-118.09157	
2.49	0.90043629	-77.112468	0.34928799	-163.72555	0.00062092021	-108.29355	0.59618911	-118.90167	
2.51	0.89774292	-78.101856	0.37189503	-163.83448	0.00071314916	-109.37448	0.59176528	-119.71565	
2.53	0.89500248	-79.112776	0.39740186	-164.13809	0.00067052381	-105.24609	0.58719216	-120.53312	
2.55	0.8922373	-80.126415	0.42301346	-164.44459	0.00062775698	-101.12059	0.58259387	-121.35472	
2.57	0.88926343	-81.171125	0.4501514	-164.85367	0.00062162235	-99.005668	0.57800014	-122.17026	
2.59	0.88607833	-82.247314	0.47882775	-165.36553	0.00065232977	-98.901532	0.57341212	-122.97981	
2.61	0.88286433	-83.327033	0.50762816	-165.88064	0.00068317302	-98.800641	0.56880125	-123.79378	
2.63	0.87958379	-84.437309	0.53969231	-166.56284	0.00071202094	-99.518842	0.56405943	-124.59492	
2.65	0.87627268	-85.551663	0.57189722	-167.24845	0.00074099956	-100.24045	0.5592961	-125.40059	
2.67	0.87275746	-86.69704	0.60580492	-167.9975	0.00078646644	-98.513496	0.55453317	-126.20256	
2.69	0.8690353	-87.87383	0.64142873	-168.81015	0.00084852889	-94.338147	0.54977127	-127.00084	
2.71	0.86527808	-89.055555	0.67721327	-169.62652	0.00091086803	-90.166522	0.54498986	-127.8039	
2.73	0.86097399	-90.288433	0.71673352	-170.54779	0.00094836096	-89.647794	0.54002022	-128.58107	
2.75	0.85663018	-91.527001	0.75643285	-171.47305	0.00098602557	-89.133053	0.53503301	-129.36308	
2.77	0.85219652	-92.793044	0.79841824	-172.44823	0.0010204717	-89.648227	0.53002524	-130.14152	
2.79	0.84767161	-94.087031	0.84270553	-173.47344	0.0010516773	-91.193439	0.52499806	-130.91644	
2.81	0.8431048	-95.387724	0.88719247	-174.50286	0.0010830234	-92.742863	0.51995639	-131.69648	
2.83	0.83799296	-96.75785	0.93615238	-175.62975	0.0011400312	-91.801746	0.5149719	-132.47772	
2.85	0.83283445	-98.135545	0.98533252	-176.76112	0.001197295	-90.865124	0.50997493	-133.26429	
2.87	0.82740695	-99.544394	1.0371783	-177.94323	0.0012957109	-88.763227	0.50496537	-134.02331	
2.89	0.82170742	-100.98487	1.0917035	-179.17617	0.0014355596	-85.49617	0.49994395	-134.75447	
2.91	0.81595747	-102.43391	1.1464626	179.58624	0.0015760315	-82.233763	0.49491229	-135.49075	
2.93	0.80943792	-103.96012	1.2061157	178.24045	0.0016442632	-84.143549	0.48967996	-136.24491	
2.95	0.80286335	-105.49607	1.2660142	176.88979	0.0017127681	-86.058211	0.48444084	-137.00472	
2.97	0.79593052	-107.07379	1.328853	175.5017	0.0018038106	-86.470298	0.4792572	-137.73931	
2.99	0.78863633	-108.69385	1.3946421	174.0761	0.0019175325	-85.3799	0.47412965	-138.44836	
3.01	0.78128509	-110.32479	1.4606749	172.64559	0.0020316952	-84.294414	0.46899791	-139.16284	
3.03	0.77332844	-112.03685	1.5326154	171.10363	0.0021589139	-86.316367	0.46383965	-139.86551	
3.05	0.76531434	-113.76111	1.6047995	169.55669	0.0022865917	-88.343306	0.45868105	-140.57403	
3.07	0.7568482	-115.54267	1.680211	167.96325	0.0024491929	-89.584748	0.45350189	-141.26279	
3.09	0.74792838	-117.38231	1.7588483	166.32326	0.0026469063	-90.040737	0.44830321	-141.93148	
3.11	0.73895426	-119.23564	1.8376969	164.67845	0.0028452727	-90.501549	0.44310753	-142.6059	
3.13	0.7289177	-121.19415	1.9217603	162.94485	0.0030136784	-91.207153	0.43804757	-143.25125	
3.15	0.71882806	-123.16772	2.0059997	161.20659	0.0031825064	-91.917412	0.43299248	-143.90247	
3.17	0.70835299	-125.19494	2.0937407	159.42397	0.0033538066	-93.27003	0.42790944	-144.55085	
3.19	0.69749558	-127.2768	2.1849637	157.59714	0.0035275228	-95.264858	0.42279987	-145.19673	
3.21	0.68659983	-129.37541	2.2762847	155.76633	0.00370149	-97.263668	0.41769869	-145.84912	
3.23	0.67460836	-131.59655	2.3736049	153.84837	0.0039315363	-98.565627	0.41290163	-146.42533	
3.25	0.66259079	-133.83611	2.4709548	151.92691	0.0041618457	-99.871094	0.40811425	-147.00794	
3.27	0.64997606	-136.15275	2.5707669	149.955	0.0043734063	-101.333	0.40326634	-147.59226	
3.29	0.636772	-138.54782	2.6729848	147.93306	0.0045660116	-102.95094	0.39835759	-148.17855	
3.31	0.62357036	-140.96368	2.7750868	145.90879	0.0047584616	-104.57121	0.39345884	-148.77207	
3.33	0.60927185	-143.52346	2.8805768	143.83018	0.0049961341	-105.76182	0.3889571	-149.30955	
3.35	0.5950043	-146.10629	2.9858334	141.7503	0.0052335014	-106.9537	0.38446641	-149.85421	
3.37	0.5803541	-148.77383	3.0934983	139.61925	0.005486136	-108.46475	0.37999962	-150.38832	
3.39	0.56534055	-151.52809	3.2035016	137.43769	0.0057539071	-110.29431	0.37555518	-150.91235	
3.41	0.55041082	-154.30889	3.3131	135.25664	0.0060210128	-112.12336	0.37111939	-151.44466	
3.43	0.534464	-157.26739	3.4252046	132.99952	0.006272193	-113.70848	0.36705526	-151.94945	
3.45	0.51864801	-160.25602	3.5367698	130.74444	0.0065223947	-115.29156	0.36299817	-152.46249	
3.47	0.50251487	-163.35638	3.6486341	128.46742	0.0067827827	-117.16658	0.3589752	-152.96178	
3.49	0.48609616	-166.57173	3.7607191	126.16944	0.0070531772	-119.33256	0.35498215	-153.44755	
3.51	0.469884	-169.8233	3.8721033	123.87584	0.0073222059	-121.49416	0.35098855	-153.94227	
3.53	0.45318723	-173.29032	3.9822722	121.53818	0.0076021281	-123.67182	0.34742465	-154.44518	
3.55	0.43676071	-176.7992	4.0916532	119.20663	0.0078804409	-125.84337	0.34385685	-154.95694	
3.57	0.42050731	179.5441	4.1994183	116.86495	0.0081719075	-127.97105	0.34041095	-155.47626	
3.59	0.4044689	175.73639	4.3055327	114.51408	0.0084763751	-130.05392	0.33708551	-156.00299	
3.61	0.38878863	171.88013	4.4108185	112.17147	0.0087789826	-132.12853	0.33375195	-156.53828	
3.63	0.37333092	167.71776	4.5141497	109.78753	0.0091108398	-134.12847	0.33051745	-157.07426	
3.65	0.35830321	163.50285	4.6166471	107.41351	0.0094406483	-136.11849	0.32727177	-157.61834	
3.67	0.34373329	159.07951	4.7159253	105.04675	0.0097166548	-138.13125	0.32413173	-158.15536	
3.69	0.32966593	154.44881	4.8120053	102.68827	0.0099391106	-140.16573	0.32109874	-158.68387	
3.71	0.31609935	149.7676	4.9073785	100.34155	0.01016002	-142.18845	0.3180558	-159.21791	
3.73	0.30387023	144.69401	4.9979546	97.982212	0.010419613	-144.26379	0.3150529	-159.78495	
3.75	0.29217692	139.58783	5.0879393	95.635687	0.010677695	-146.32631	0.31203992	-160.35678	
3.77	0.2817795	134.25878	5.1731252	93.318669	0.010934505	-148.36533	0.30910363	-160.94032	
3.79	0.27267727	128.7375	5.2535819	91.031756	0.011190125	-150.38024	0.30624686	-161.5348	
3.81	0.2640535	123.23909	5.333735	88.758132	0.011444753	-152.38187	0.30338558	-162.13219	
3.83	0.25754812	117.38535	5.4076281	86.475756	0.011730117	-154.29624	0.30051737	-162.75424	
3.85	0.25141339	111.62085	5.4814195	84.207002	0.01201474	-156.197	0.29764816	-163.3783	
3.87	0.24685899	105.74586	5.5517222	81.965115	0.012253293	-158.13688	0.29477769	-164.00725	
3.89	0.2437732	99.817407	5.6186025	79.750547	0.012446159	-160.11545	0.29191344	-164.64029	
3.91	0.24074897	94.06968	5.6857232	77.548981	0.012639378	-162.08102	0.28906232	-165.27246	
3.93	0.24062664	88.242291	5.7465061	75.383631	0.012883323	-164.03437	0.28629544	-165.9226	
3.95	0.24030602	82.643211	5.8076858	73.230544	0.013127745	-165.97546	0.28354489	-166.57165	
3.97	0.24133823	77.206859	5.865323	71.110966	0.013308781	-167.79703	0.28082804	-167.2846	
3.99	0.24359237	71.933255	5.9193885	69.02501	0.013426672	-169.49899	0.27815772	-168.06279	
4.01	0.24534101	66.866911	5.9740553	66.949443	0.013545943	-171.19056	0.27552485	-168.84086	
4.03	0.24939715	62.101326	6.0191407	64.927203	0.013794632	-172.9248	0.27278869	-169.48144	
4.05	0.25285212	57.483782	6.0648412	62.914457	0.014044283	-174.64954	0.27008365	-170.11969	
4.07	0.2570173	53.119352	6.1092218	60.924412	0.014273362	-176.41559	0.26731264	-170.7626	
4.09	0.2619034	48.960571	6.152182	58.957277	0.014481732	-178.22272	0.26448128	-171.41026	
4.11	0.26615735	44.86331	6.1958201	56.998351	0.014691421	179.97835	0.26169325	-172.05515	
4.13	0.27173301	41.240551	6.2337324	55.078884	0.01475975	178.53488	0.25886916	-172.69656	
4.15	0.27675234	37.623327	6.2722654	53.166873	0.014829597	177.09887	0.2560947	-173.33787	
4.17	0.28200216	34.255549	6.3084652	51.294973	0.014962682	175.45897	0.25308367	-174.00009	
4.19	0.28756759	31.11655	6.3422278	49.462924	0.015158559	173.61492	0.24984051	-174.68247	
4.21	0.29267061	27.948346	6.3766354	47.636991	0.015355769	171.77699	0.24665617	-175.36361	
4.23	0.29824331	25.222575	6.4073703	45.852007	0.015510551	170.31201	0.2438398	-176.07298	
4.25	0.30344795	22.459099	6.4386932	44.072032	0.015666639	168.85203	0.24108137	-176.78219	
4.27	0.30846291	19.84283	6.4689476	42.314092	0.015813591	167.41609	0.23837195	-177.48174	
4.29	0.31334218	17.375309	6.498074	40.577589	0.01595129	166.00359	0.2357117	-178.172	
4.31	0.31792116	14.870495	6.5278089	38.844569	0.016090422	164.59457	0.23311161	-178.86248	
4.33	0.32260265	12.682913	6.5521642	37.182069	0.016235947	163.12807	0.23060723	-179.52479	
4.35	0.32704631	10.461743	6.5770692	35.522227	0.016382778	161.66423	0.22816398	179.8127	
4.37	0.33124339	8.3459835	6.601641	33.881638	0.016523056	160.18164	0.22572577	179.18165	
4.39	0.33522689	6.3394084	6.6258249	32.259875	0.016656666	158.67988	0.22329182	178.58161	
4.41	0.33901936	4.3033728	6.6505366	30.639677	0.016791585	157.17968	0.22091971	177.98054	
4.43	0.34276592	2.4667935	6.6743229	29.05937	0.016907189	155.91937	0.21851419	177.37348	
4.45	0.34635747	0.60411812	6.6985889	27.480158	0.017024005	154.66016	0.21616608	176.76427	
4.47	0.34981306	-1.1662919	6.7210445	25.925152	0.017153482	153.48715	0.21384695	176.17069	
4.49	0.35315534	-2.8413502	6.7416372	24.394181	0.017295497	152.40018	0.21155368	175.59264	
4.51	0.35637795	-4.5390938	6.7626639	22.863703	0.017438648	151.3137	0.20931412	175.01208	
4.53	0.35901313	-6.0849631	6.7833162	21.375834	0.017550798	149.98983	0.20728233	174.4561	
4.55	0.36154727	-7.650317	6.8043485	19.887999	0.017663959	148.666	0.20530552	173.89699	
4.57	0.36396898	-9.1689447	6.825462	18.410827	0.017779476	147.35483	0.2033376	173.35436	
4.59	0.36628838	-10.63929	6.8466292	16.944234	0.017897283	146.05623	0.20137709	172.82769	
4.61	0.36852738	-12.128512	6.8681378	15.477482	0.018016026	144.75748	0.19946676	172.29899	
4.63	0.37056871	-13.476588	6.887257	14.070627	0.018139776	143.42263	0.1977224	171.81106	
4.65	0.37254245	-14.840172	6.906679	12.66328	0.018264383	142.08728	0.19602754	171.31854	
4.67	0.37427068	-16.170191	6.9272175	11.259825	0.018383548	140.80783	0.19434011	170.82526	
4.69	0.37575988	-17.465677	6.9488461	9.8601896	0.018497197	139.58419	0.19265722	170.33076	
4.71	0.37719438	-18.775802	6.9707441	8.4597927	0.018611618	138.35979	0.19101931	169.83064	
4.73	0.37844065	-19.993621	6.9901475	7.0917134	0.018722819	137.25971	0.1896205	169.35501	
4.75	0.37964234	-21.224826	7.0097846	5.722793	0.018834709	136.15879	0.18826142	168.87435	
4.77	0.38067402	-22.4159	7.0288845	4.3719822	0.018969256	135.08598	0.18685989	168.41129	
4.79	0.38153931	-23.565896	7.0474223	3.0392873	0.019126436	134.04129	0.18541523	167.96551	
4.81	0.38236889	-24.728278	7.0661571	1.7056462	0.019284274	132.99565	0.18400806	167.51386	
4.83	0.38298543	-25.827651	7.0867095	0.39597952	0.019354587	131.86598	0.18303854	167.06491	
4.85	0.38357373	-26.938177	7.1074314	-0.91468328	0.01942538	130.73532	0.18209935	166.61018	
4.87	0.38397471	-28.033492	7.1280804	-2.2211606	0.01950943	129.63084	0.18109191	166.1471	
4.89	0.38419009	-29.11329	7.1486404	-3.5234501	0.019606719	128.55255	0.18001598	165.67525	
4.91	0.38438351	-30.203974	7.1693421	-4.8268004	0.019704449	127.4732	0.17896796	165.19675	
4.93	0.38431691	-31.227617	7.1885796	-6.1057215	0.019858257	126.52228	0.17813632	164.75693	
4.95	0.38423191	-32.261532	7.2079308	-7.3856919	0.020012511	125.57031	0.17733066	164.31199	
4.97	0.38404535	-33.271866	7.2279527	-8.6515325	0.020140226	124.51647	0.17664461	163.88031	
4.99	0.3837594	-34.257551	7.2486292	-9.9032158	0.020241302	123.36078	0.17607412	163.46092	
5.01	0.38346158	-35.252241	7.2693923	-11.155944	0.020342677	122.20406	0.17552224	163.03508	
5.03	0.38288391	-36.227416	7.2895915	-12.399418	0.020443426	121.16058	0.17493742	162.56405	
5.05	0.38229849	-37.21159	7.3098582	-13.643906	0.020544422	120.11609	0.17436874	162.08746	
5.07	0.38158621	-38.173416	7.3301127	-14.880444	0.020648817	119.07956	0.17393768	161.63768	
5.09	0.38074815	-39.112352	7.3503405	-16.108997	0.020756576	118.051	0.17364167	161.21524	
5.11	0.37990737	-40.059603	7.3706088	-17.338523	0.020864518	117.02148	0.17335594	160.78797	
5.13	0.37893268	-40.979039	7.3920246	-18.55394	0.02097956	116.10206	0.17308531	160.35006	
5.15	0.37795881	-41.906525	7.4134687	-19.770268	0.021094752	115.18173	0.17282271	159.90825	
5.17	0.37681663	-42.817188	7.4340519	-20.97482	0.021187135	114.15718	0.17267839	159.44815	
5.19	0.37550791	-43.710284	7.4537572	-22.167529	0.021256619	113.02847	0.17264828	158.9701	
5.21	0.37420573	-44.610384	7.4734618	-23.361046	0.021326118	111.89895	0.17261827	158.48864	
5.23	0.37271359	-45.493917	7.495929	-24.560211	0.021417162	110.89579	0.17255474	158.01229	
5.25	0.37122996	-46.384427	7.5183868	-25.760127	0.021508212	109.89187	0.1724904	157.53309	
5.27	0.36961418	-47.266132	7.5392482	-26.948001	0.021607894	108.954	0.17253038	157.04672	
5.29	0.36786766	-48.139008	7.558497	-28.123747	0.021716186	108.08225	0.17267327	156.55518	
5.31	0.36614195	-49.019302	7.5776876	-29.299871	0.021824369	107.21013	0.17280511	156.06646	
5.33	0.36436296	-49.885433	7.5999686	-30.473534	0.021954338	106.21247	0.17311632	155.57123	
5.35	0.36259883	-50.757701	7.6222099	-31.64777	0.022084264	105.21423	0.17341996	155.0757	
5.37	0.36071008	-51.61892	7.6438077	-32.815028	0.022188023	104.23297	0.17367467	154.56939	
5.39	0.35869902	-52.468934	7.6647545	-33.975232	0.022265555	103.26877	0.17387816	154.05299	
5.41	0.35670921	-53.324779	7.6856473	-35.135863	0.022342947	102.30414	0.17406839	153.53744	
5.43	0.35458868	-54.168595	7.7066744	-36.286722	0.022451406	101.36928	0.17453374	153.03731	
5.45	0.35249059	-55.017906	7.7276369	-37.437941	0.022559721	100.43406	0.17498361	152.53908	
5.47	0.3502067	-55.855735	7.7481795	-38.588474	0.022644974	99.445526	0.17543897	152.01249	
5.49	0.34773914	-56.681702	7.7682931	-39.73822	0.022707108	98.40378	0.1758968	151.45852	
5.51	0.3452996	-57.512511	7.7883278	-40.88815	0.022769014	97.36185	0.17633286	150.90782	
5.53	0.34283491	-58.337286	7.8107233	-42.027056	0.02283111	96.530944	0.17686227	150.36178	
5.55	0.34039929	-59.167174	7.8330391	-43.166082	0.02289297	95.699918	0.1773705	149.82051	
5.57	0.33786112	-59.99551	7.854135	-44.30381	0.022977	94.81419	0.17789821	149.25972	
5.59	0.33522	-60.821819	7.8740053	-45.44018	0.023083207	93.87382	0.17844434	148.67928	
5.61	0.33261098	-61.652496	7.8937856	-46.576527	0.023189177	92.933473	0.17896503	148.10373	
5.63	0.32982269	-62.457073	7.915679	-47.690117	0.023286334	92.107883	0.17961161	147.50779	
5.65	0.32706708	-63.265915	7.93748	-48.803575	0.023383236	91.282425	0.18023216	146.91816	
5.67	0.32420548	-64.081901	7.9590668	-49.923724	0.023471891	90.344276	0.18088035	146.29794	
5.69	0.32124101	-64.904644	7.9804334	-51.050484	0.023552275	89.293516	0.18155208	145.64781	
5.71	0.31831601	-65.730971	8.0017009	-52.176949	0.023632372	88.243051	0.18219	145.0049	
5.73	0.31519659	-66.548055	8.0208814	-53.299715	0.023712254	87.268285	0.18278092	144.38484	
5.75	0.31211732	-67.368659	8.0399619	-54.422122	0.023791847	86.293878	0.1833374	143.77173	
5.77	0.3089777	-68.177038	8.0595861	-55.542726	0.023874991	85.345274	0.18396591	143.12818	
5.79	0.30577728	-68.972959	8.0797538	-56.661442	0.023961683	84.422558	0.18466575	142.45536	
5.81	0.30261817	-69.771914	8.0998245	-57.779647	0.024048091	83.500353	0.1853287	141.7908	
5.83	0.29933107	-70.575802	8.1210845	-58.881875	0.024120914	82.586125	0.1859271	141.14924	
5.85	0.29608691	-71.382718	8.142249	-59.983543	0.024193453	81.672457	0.18648744	140.51553	
5.87	0.29273226	-72.187057	8.1629715	-61.089164	0.024254697	80.848836	0.18706293	139.85174	
5.89	0.28926504	-72.989138	8.1832531	-62.198679	0.024304648	80.115321	0.18765497	139.15881	
5.91	0.28584068	-73.79446	8.2034443	-63.307494	0.024354333	79.382506	0.18820833	138.47492	
5.93	0.2823002	-74.584164	8.2218215	-64.404249	0.024430912	78.493751	0.18885359	137.76306	
5.95	0.27880468	-75.37632	8.2401124	-65.500219	0.02450723	77.605781	0.18945604	137.06012	
5.97	0.27516076	-76.186956	8.2579981	-66.603996	0.024577307	76.704004	0.1899723	136.34712	
5.99	0.27137579	-77.016316	8.2754736	-67.715323	0.024641131	75.788677	0.19039662	135.62562	