!
! Hittite Microwave Corporation
! 20 Alpha Road
! Chelmsford, MA 01824
! http://www.hittite.com
! Tel: 978-250-3343
! Fax: 978-250-3373
! 
! Device:      HMC902LP3E
! Description: GaAs pHEMT MMIC Low Noise Amplifier
! Frequency:   5.00 -  10.00 GHz
! Package:     LP3  - 3x3 mm Quad Flatpack No-Lead (QFN) Plastic Package: 16 pin
! Ports:       2 RF, 4 DC
!              Pin  3 = RF In  = Port 1
!              Pin  5 = Vgg1 (Optional)
!              Pin  6 = Vgg2 (Optional)
!              Pin 10 = RF Out  = Port 2
!              Pin 14 = Vdd2
!              Pin 15 = Vdd1
!
!
! Voltages:    Vdd  = Vdd1 = Vdd2 = +3.50  Volts
!              Idd  = Idd1 + Idd2 = 51.24  mA
!              Vgg  = Vgg1 = Vgg2 = -0.35  Volts
!              Igg  = Igg1 + Igg2 = -0.09  mA
!
! Data:    The device was measured on evaluation board 128395.
!          Data was collected using a calibrated network analyzer.
!          The evaluation circuit board was modeled and simulated.  This was use
!          to removed the evaluation board circuit from the measured data.
!          The reference plane is the edge of the package pin.
!
! Misc:        
!
! Date Measured:  2010-08-30
! Date:           2010-09-07 MJV
! Note: 
!   Hittite supplies this data as a sample of measured data at the package pin for
!   for this package product.  Your particular data for this product may vary.
!   Data was taken at 25 degrees C.
!   Hittite reserves the right to change this data at anytime.
!
# GHz S MA R 50

0.01	0.98674986	-0.42155711	0.00056717767	162.87911	0.00027460859	-145.52089	0.98638642	-0.50155681	
0.03	0.98558945	-0.97333765	0.00035436481	110.98825	0.00019986173	-159.25975	0.98632835	-1.6133021	
0.05	0.98424212	-1.5128836	0.00014142681	59.110261	0.00012505334	-172.98574	0.98608394	-2.7127044	
0.07	0.98328028	-2.0111288	4.7846764e-005	9.2201551	7.6336695e-005	161.29616	0.98580075	-3.7766329	
0.09	0.98279513	-2.4757386	7.3622241e-005	-38.689552	5.3719317e-005	123.57845	0.98557063	-4.8127052	
0.11	0.98232386	-2.9415177	9.9395439e-005	-86.599767	3.1102225e-005	85.860233	0.9853557	-5.849676	
0.13	0.98214075	-3.4172859	0.00020509184	-87.423771	4.256248e-005	91.580229	0.98528526	-6.8883152	
0.15	0.98199757	-3.8918641	0.00031078668	-88.246466	5.402278e-005	97.301534	0.98525578	-7.9253909	
0.17	0.98186539	-4.3699748	0.00046306235	-89.560118	5.9200076e-005	114.99388	0.98486988	-8.9795371	
0.19	0.98185746	-4.8450376	0.00066191459	-91.358281	5.8101978e-005	144.66372	0.98424134	-10.044123	
0.21	0.98187268	-5.3191695	0.00086069453	-93.155294	5.7003831e-005	174.33471	0.98363732	-11.107222	
0.23	0.9817921	-5.8062799	0.0011810599	-94.764806	6.6782716e-005	125.01719	0.98299026	-12.174679	
0.25	0.98169651	-6.2938895	0.0015012073	-96.374321	7.6553464e-005	75.699679	0.98233006	-13.24195	
0.27	0.98165177	-6.782696	0.001916075	-99.714702	7.7971956e-005	77.427298	0.9815521	-14.303725	
0.29	0.98165354	-7.2728876	0.0024255519	-104.78612	7.1045104e-005	130.19988	0.9806522	-15.360149	
0.31	0.98162832	-7.763695	0.002934537	-109.85742	6.4118682e-005	-177.02742	0.9797281	-16.416348	
0.33	0.98168857	-8.2578119	0.0036039033	-110.89937	7.2257221e-005	147.39463	0.97863968	-17.482952	
0.35	0.98175944	-8.7511136	0.004272672	-111.94011	8.0387994e-005	111.81789	0.97756419	-18.547823	
0.37	0.98183742	-9.2421641	0.0051260488	-114.40186	9.6501271e-005	89.462141	0.97616479	-19.607505	
0.39	0.98192849	-9.7306952	0.0061637441	-118.2844	0.00012058564	80.327605	0.97444798	-20.661702	
0.41	0.98202745	-10.218352	0.007200333	-122.16559	0.00014464472	71.194411	0.97274244	-21.71399	
0.43	0.98200969	-10.709185	0.0089423913	-129.67347	0.00012096636	84.190531	0.97084146	-22.736682	
0.45	0.9819816	-11.199555	0.010682306	-137.18012	9.7308427e-005	97.187881	0.96893499	-23.75783	
0.47	0.98190639	-11.700959	0.010657224	-149.06166	8.1765253e-005	112.00434	0.96790769	-24.765039	
0.49	0.98178431	-12.213342	0.0088701307	-165.31808	7.4324175e-005	128.63992	0.96775784	-25.758259	
0.51	0.98165809	-12.724937	0.0070849323	178.42692	6.6889924e-005	145.27692	0.96760598	-26.749576	
0.53	0.98152393	-13.231605	0.0075124431	-161.48061	8.723186e-005	112.00539	0.96599507	-27.90856	
0.55	0.98139528	-13.737167	0.0079392833	-141.38641	0.00010754594	78.735586	0.96439353	-29.064967	
0.57	0.98130455	-14.241675	0.0091136671	-130.61858	0.00012411516	63.283417	0.96221523	-30.179542	
0.59	0.98124238	-14.745306	0.011033984	-129.17712	0.00013694552	65.648882	0.95945333	-31.252561	
0.61	0.98118455	-15.247743	0.01295153	-127.73388	0.00014975663	68.016116	0.9567014	-32.323019	
0.63	0.98094973	-15.760987	0.01495463	-128.58887	0.00012806916	57.537133	0.95402638	-33.375292	
0.65	0.98071963	-16.272949	0.016954747	-129.44205	0.00010641121	47.059948	0.95136108	-34.424932	
0.67	0.98052348	-16.787537	0.019044107	-130.54538	9.8275233e-005	43.804617	0.94863366	-35.471912	
0.69	0.9803612	-17.304712	0.021222487	-131.89885	0.0001036323	47.771149	0.94584408	-36.516197	
0.71	0.98019949	-17.8206	0.023397446	-133.25046	0.00010898042	51.739542	0.94306071	-37.557832	
0.73	0.98001445	-18.351044	0.025877989	-134.69989	0.00010193222	46.442114	0.9402484	-38.600839	
0.75	0.97983322	-18.880021	0.028354639	-136.14741	9.4894241e-005	41.146587	0.93744472	-39.64104	
0.77	0.97968943	-19.401711	0.031013979	-137.61512	0.00010030281	34.282877	0.93453196	-40.676539	
0.79	0.97958302	-19.91609	0.033855616	-139.10302	0.00011812953	25.850976	0.93151014	-41.707308	
0.81	0.97948032	-20.428932	0.036692865	-140.58904	0.00013592884	17.420961	0.92849655	-42.735201	
0.83	0.9793206	-20.959779	0.039937124	-142.07275	0.00012303145	45.689251	0.9252413	-43.764149	
0.85	0.97916149	-21.489085	0.043176348	-143.55453	0.00011015355	73.95947	0.9219918	-44.790273	
0.87	0.97888098	-22.016927	0.046572625	-145.08024	0.00011845839	76.489763	0.91871808	-45.813657	
0.89	0.97848547	-22.543115	0.050125952	-146.64996	0.00014789836	53.280043	0.915424	-46.834133	
0.91	0.97809359	-23.067614	0.053674121	-148.2178	0.00017729437	30.072205	0.91213658	-47.851696	
0.93	0.97781375	-23.609981	0.057674442	-149.88749	0.00012358311	5.1025143	0.90863314	-48.866411	
0.95	0.97753735	-24.150564	0.061669162	-151.55531	6.9953287e-005	-19.865309	0.90513573	-49.878206	
0.97	0.97728458	-24.697101	0.065923876	-153.26713	5.3580063e-005	-10.891131	0.90158712	-50.889026	
0.99	0.97705284	-25.249624	0.070438016	-155.02292	7.4380478e-005	32.025079	0.89798545	-51.898958	
1.01	0.97682019	-25.800395	0.074946039	-156.77681	9.5151072e-005	74.943186	0.8943861	-52.906129	
1.03	0.97649954	-26.345416	0.07985491	-158.63698	7.9880537e-005	52.979022	0.8907796	-53.906586	
1.05	0.97618189	-26.888542	0.084757853	-160.49537	6.463249e-005	31.016629	0.8871764	-54.904205	
1.07	0.9758358	-27.431742	0.089886686	-162.38998	7.2223614e-005	18.174024	0.88357407	-55.897049	
1.09	0.9754613	-27.974979	0.095241233	-164.32082	0.0001026073	14.451184	0.87997188	-56.885134	
1.11	0.97508977	-28.516255	0.10059012	-166.24997	0.00013295214	10.730034	0.87637105	-57.870449	
1.13	0.97459453	-29.086563	0.10614908	-168.32474	0.00012530961	15.835262	0.8725705	-58.853291	
1.15	0.97409681	-29.655071	0.11170234	-170.39781	0.00011767844	20.942185	0.86876785	-59.833706	
1.17	0.97370781	-30.223419	0.11742584	-172.52529	0.0001128931	28.352709	0.86494857	-60.811473	
1.19	0.97342712	-30.791592	0.12331965	-174.7072	0.00011094824	38.066799	0.86111192	-61.786639	
1.21	0.97314856	-31.357688	0.12920906	-176.88756	0.0001090079	47.782441	0.85727332	-62.759241	
1.23	0.97263995	-31.929403	0.13514847	-179.19795	8.5319638e-005	11.064055	0.85356438	-63.729089	
1.25	0.9721337	-32.499005	0.14108444	178.49316	6.1659112e-005	-25.652844	0.84985183	-64.69647	
1.27	0.97158612	-33.076027	0.14691119	176.16177	4.4388771e-005	-15.204232	0.84607484	-65.653849	
1.29	0.97099737	-33.660441	0.15262944	173.80784	3.3497645e-005	42.409844	0.84223285	-66.601296	
1.31	0.97041095	-34.242697	0.15834609	171.45527	2.2617643e-005	100.02527	0.8383851	-67.546459	
1.33	0.96985431	-34.830379	0.16375723	168.99211	4.1344982e-005	77.382107	0.8345652	-68.485599	
1.35	0.96929965	-35.415888	0.16916811	166.53021	6.0057533e-005	54.740205	0.83073781	-69.422583	
1.37	0.96879518	-36.004873	0.17422544	164.03571	7.2596893e-005	20.371705	0.82683324	-70.357306	
1.39	0.96834058	-36.597321	0.17893021	161.50856	7.8971213e-005	-25.723441	0.82285063	-71.28984	
1.41	0.9678872	-37.18759	0.18363684	158.98253	8.5343374e-005	-71.817469	0.81885789	-72.220418	
1.43	0.96718902	-37.787063	0.18726908	156.45391	9.6609655e-005	-82.166093	0.81499564	-73.141541	
1.45	0.96649227	-38.384348	0.19090488	153.9263	0.00010787238	-92.5137	0.8111217	-74.06086	
1.47	0.96584238	-38.98699	0.19398395	151.41184	0.00011561603	-102.96616	0.80725883	-74.976568	
1.49	0.96523908	-39.594982	0.19650708	148.91049	0.00011984391	-113.52351	0.80340623	-75.888748	
1.51	0.96463657	-40.200802	0.19903543	146.41001	0.00012407389	-124.07999	0.79953955	-76.799361	
1.53	0.96388992	-40.819343	0.20009676	144.02276	0.00010308597	-101.25124	0.79557034	-77.696691	
1.55	0.9631438	-41.435706	0.20116443	141.63626	8.210715e-005	-78.421742	0.79158528	-78.59261	
1.57	0.96244962	-42.055546	0.20144923	139.32671	8.9477768e-005	-72.407288	0.78769709	-79.485374	
1.59	0.96180708	-42.678877	0.20095149	137.09409	0.00012519079	-83.207912	0.78390526	-80.37509	
1.61	0.96116429	-43.300097	0.20046071	134.86208	0.00016090489	-94.007923	0.78009552	-81.263693	
1.63	0.96045423	-43.937924	0.19857632	132.86699	0.0001471274	-90.479013	0.77625266	-82.139902	
1.65	0.95974364	-44.573668	0.19669884	130.8724	0.00013335444	-86.949601	0.77239061	-83.015173	
1.67	0.95897893	-45.212838	0.19411892	129.03682	0.00014254218	-85.265183	0.76861141	-83.893199	
1.69	0.95815992	-45.855455	0.19083637	127.36018	0.00017469697	-85.425819	0.76491427	-84.774121	
1.71	0.95733977	-46.496063	0.18756002	125.68388	0.00020686655	-85.586123	0.76119574	-85.654421	
1.73	0.95657518	-47.149564	0.18322036	124.45599	0.00017205643	-82.746015	0.75739066	-86.518981	
1.75	0.95580885	-47.801124	0.1788858	123.22831	0.00013723888	-79.905689	0.75356304	-87.383103	
1.77	0.95500186	-48.463822	0.17419878	122.24148	0.00013321773	-83.634515	0.74979984	-88.252684	
1.79	0.95415387	-49.137683	0.16915862	121.49545	0.00016001647	-93.932549	0.74610039	-89.127867	
1.81	0.95330328	-49.809705	0.1641218	120.74946	0.00018683846	-104.23054	0.74237649	-90.002964	
1.83	0.9523845	-50.48739	0.15863252	120.57593	0.00020383116	-98.936074	0.73863056	-90.86659	
1.85	0.95146042	-51.163473	0.15314495	120.40235	0.0002208447	-93.641648	0.7348596	-91.730517	
1.87	0.95040788	-51.852716	0.14759726	120.61507	0.00023060765	-93.946933	0.73109116	-92.589027	
1.89	0.94922653	-52.555158	0.14198872	121.214	0.00023311162	-99.852001	0.72732497	-93.442227	
1.91	0.94804115	-53.256012	0.13638009	121.81264	0.0002356275	-105.75736	0.72353236	-94.295895	
1.93	0.94695406	-53.962739	0.13098402	123.33555	0.0002415363	-99.722452	0.71985109	-95.150372	
1.95	0.94586223	-54.668018	0.12558682	124.85805	0.00024746177	-93.687952	0.71614275	-96.005578	
1.97	0.94475658	-55.390191	0.1205641	126.99312	0.00026027386	-93.172884	0.71248351	-96.8615	
1.99	0.94363651	-56.129339	0.11591607	129.74067	0.0002799881	-98.177333	0.70887308	-97.718321	
2.01	0.94251043	-56.867241	0.11126615	132.48761	0.00029974231	-103.18239	0.70523455	-98.576272	
2.03	0.94123911	-57.607679	0.10848444	136.6296	0.00030486652	-104.6324	0.70147728	-99.431413	
2.05	0.939961	-58.347042	0.10570264	140.77082	0.00031001141	-106.08318	0.6976911	-100.2879	
2.07	0.93867674	-59.096516	0.10433477	145.41954	0.00031287021	-110.22846	0.69386329	-101.14392	
2.09	0.93738582	-59.856198	0.10438437	150.57569	0.00031343731	-117.06831	0.6899936	-101.99956	
2.11	0.93608688	-60.61507	0.10443825	155.73084	0.00031401802	-123.90916	0.68609421	-102.8569	
2.13	0.93461599	-61.394963	0.10800451	161.22213	0.00034349514	-120.26187	0.68229029	-103.71205	
2.15	0.93313586	-62.174254	0.11158248	166.71225	0.00037304699	-116.61575	0.67845648	-104.56919	
2.17	0.93158791	-62.967866	0.11784947	171.70532	0.00037066404	-119.33268	0.67451615	-105.42239	
2.19	0.92997133	-63.775926	0.12681518	176.20125	0.00033624036	-128.41275	0.67046904	-106.27172	
2.21	0.92834371	-64.58374	0.13580675	-179.30424	0.00030174935	-137.49424	0.66639151	-107.12336	
2.23	0.92667355	-65.41368	0.1477947	-176.62673	0.00033481229	-134.02473	0.66225074	-107.95371	
2.25	0.92499126	-66.243638	0.15981814	-173.95078	0.00036797032	-130.55678	0.65807997	-108.78651	
2.27	0.92326348	-67.08459	0.17291053	-171.71978	0.00039682183	-123.64778	0.65395374	-109.61796	
2.29	0.92148927	-67.936718	0.18707775	-169.93384	0.00042135357	-113.29784	0.64987235	-110.44824	
2.31	0.91970095	-68.789268	0.20129079	-168.14972	0.00044596822	-102.94972	0.64576128	-111.28136	
2.33	0.91776401	-69.675942	0.21853985	-167.06299	0.00045217386	-105.13099	0.64151135	-112.10516	
2.35	0.91581134	-70.563394	0.2358473	-165.97826	0.00045841376	-107.31426	0.63723218	-112.93198	
2.37	0.91375092	-71.466683	0.25424418	-165.19707	0.00045909521	-109.84307	0.63302157	-113.7564	
2.39	0.91158149	-72.386009	0.27373783	-164.71952	0.00045419261	-112.71752	0.62888037	-114.57854	
2.41	0.90939388	-73.306609	0.29330289	-164.24421	0.00044928957	-115.59421	0.62471137	-115.40407	
2.43	0.90716209	-74.239386	0.31537512	-164.07122	0.00047539073	-111.13322	0.62032734	-116.22377	
2.45	0.90491078	-75.173798	0.33753099	-163.90067	0.00050159399	-106.67467	0.61591547	-117.04706	
2.47	0.90240747	-76.136234	0.36107215	-163.87826	0.00051461942	-102.00826	0.61154332	-117.86426	
2.49	0.89964956	-77.12698	0.38600914	-164.00415	0.00051439973	-97.134151	0.60721185	-118.67545	
2.51	0.8968678	-78.120021	0.41104725	-164.13281	0.0005141937	-92.262812	0.60285448	-119.49054	
2.53	0.89409402	-79.138584	0.43919562	-164.47147	0.00056529445	-97.501467	0.59851154	-120.30582	
2.55	0.89129553	-80.159917	0.46746124	-164.81305	0.00061660202	-102.74305	0.59414448	-121.12524	
2.57	0.88828575	-81.208514	0.49741011	-165.25357	0.00064103518	-105.42557	0.5896987	-121.93821	
2.59	0.88506189	-82.284744	0.52905504	-165.79323	0.00063843927	-105.54923	0.58517452	-122.74475	
2.61	0.88180879	-83.364506	0.56083796	-166.33616	0.00063584666	-105.67616	0.58062741	-123.55568	
2.63	0.87842414	-84.478523	0.59622996	-167.04603	0.0006712698	-103.78603	0.57601635	-124.34156	
2.65	0.87500823	-85.596616	0.63177856	-167.75932	0.00070685104	-101.89932	0.57138388	-125.13185	
2.67	0.87140137	-86.745824	0.66923966	-168.54427	0.00072995645	-99.734274	0.56671597	-125.93079	
2.69	0.86760085	-87.926572	0.70862872	-169.40108	0.00074050812	-97.291075	0.5620132	-126.73857	
2.71	0.86376471	-89.112301	0.74819747	-170.26166	0.00075111466	-94.851657	0.55729091	-127.55119	
2.73	0.859407	-90.345219	0.79184387	-171.20259	0.00083159714	-94.984588	0.5524877	-128.31724	
2.75	0.85500948	-91.583828	0.83568958	-172.14752	0.00091244274	-95.121525	0.5476673	-129.08802	
2.77	0.85043485	-92.851708	0.88196939	-173.15085	0.00096273174	-94.724847	0.54280076	-129.86355	
2.79	0.84568049	-94.149313	0.93070049	-174.21272	0.00098225796	-93.794717	0.5378886	-130.64395	
2.81	0.84088247	-95.453601	0.97965313	-175.27886	0.0010018722	-92.868862	0.53296147	-131.42946	
2.83	0.83554102	-96.82321	1.0335378	-176.43818	0.0010962159	-89.02418	0.52810076	-132.19428	
2.85	0.830151	-98.200285	1.0876655	-177.60201	0.0011909907	-85.184015	0.52322664	-132.96418	
2.87	0.82452234	-99.610891	1.1446694	-178.81681	0.0012676444	-83.824813	0.51829727	-133.7197	
2.89	0.81865288	-101.05569	1.2045653	179.91729	0.0013260452	-84.946709	0.51331473	-134.46084	
2.91	0.81273233	-102.5092	1.2647194	178.64669	0.0013846952	-86.073305	0.5083228	-135.20728	
2.93	0.80590955	-104.03872	1.3303103	177.26413	0.001482701	-86.251869	0.50322429	-135.9447	
2.95	0.79902979	-105.57789	1.3961706	175.87667	0.001581124	-86.435332	0.49811848	-136.68747	
2.97	0.79181053	-107.15906	1.4652173	174.45166	0.0017095123	-86.788336	0.49306784	-137.41384	
2.99	0.7842495	-108.78286	1.5374613	172.98903	0.0018680594	-87.310974	0.48807412	-138.12367	
3.01	0.77663073	-110.41762	1.6099728	171.52145	0.0020272557	-87.838548	0.48307724	-138.83894	
3.03	0.76837381	-112.12456	1.6887713	169.94252	0.0021702696	-88.469483	0.47804004	-139.53741	
3.05	0.760058	-113.84354	1.7678341	168.35862	0.0023138104	-89.10538	0.47300191	-140.24146	
3.07	0.75123778	-115.61781	1.850286	166.73006	0.0024590141	-90.021944	0.46793423	-140.92847	
3.09	0.74191078	-117.44824	1.9361224	165.0568	0.0026058515	-91.219199	0.46283803	-141.59838	
3.11	0.73252728	-119.29229	2.022184	163.37878	0.0027531233	-92.421218	0.45774417	-142.27405	
3.13	0.7220585	-121.24936	2.1139936	161.5999	0.0028897749	-92.940104	0.45276423	-142.91519	
3.15	0.71153462	-123.22144	2.2059881	159.81642	0.0030267235	-93.463581	0.44778817	-143.56202	
3.17	0.70059596	-125.24045	2.3014444	157.9926	0.00317378	-94.525398	0.44276205	-144.21014	
3.19	0.68924581	-127.30725	2.4003372	156.12864	0.0033309352	-96.125359	0.43768742	-144.85987	
3.21	0.67785594	-129.3906	2.4993238	154.26084	0.0034882895	-97.729158	0.43262042	-145.51589	
3.23	0.66530228	-131.59966	2.6049224	152.30611	0.0037160539	-97.975891	0.42793063	-146.09064	
3.25	0.65272178	-133.82686	2.7105394	150.34805	0.0039440798	-98.225954	0.42325033	-146.67127	
3.27	0.63953678	-136.12261	2.8184221	148.34206	0.0041781228	-99.313944	0.41855215	-147.25442	
3.29	0.62575567	-138.48845	2.9285094	146.28857	0.0044180747	-101.23943	0.41383618	-147.84087	
3.31	0.61197731	-140.87517	3.0384584	144.23299	0.0046579872	-103.16701	0.40913053	-148.43462	
3.33	0.59704048	-143.41109	3.1519601	142.11489	0.0049066647	-105.21711	0.40468741	-148.97278	
3.35	0.58213428	-145.97065	3.2651934	139.99578	0.0051550488	-107.26822	0.40025322	-149.51846	
3.37	0.56684242	-148.60797	3.3805455	137.83191	0.0053987081	-109.23409	0.39588364	-150.06276	
3.39	0.55118412	-151.32486	3.497944	135.62397	0.0056374845	-111.11403	0.39157802	-150.60578	
3.41	0.53560916	-154.06901	3.6148967	133.4168	0.005875582	-112.9932	0.38727953	-151.15686	
3.43	0.51908697	-156.96354	3.7337893	131.14705	0.0061427526	-114.46295	0.38331246	-151.67454	
3.45	0.50269443	-159.88922	3.8521041	128.87959	0.0064089814	-115.93041	0.37935194	-152.20032	
3.47	0.48596636	-162.92884	3.9703314	126.58633	0.0066742789	-117.86967	0.37542032	-152.71779	
3.49	0.46893295	-166.08652	4.0883906	124.26824	0.0069384743	-120.27976	0.37151148	-153.22724	
3.51	0.45210262	-169.28347	4.2057106	121.9547	0.0072013577	-122.6853	0.36759875	-153.74542	
3.53	0.43477272	-172.67566	4.3208047	119.60644	0.0074556322	-124.05356	0.36408358	-154.25032	
3.55	0.41771049	-176.1135	4.4350843	117.26441	0.0077084152	-125.41559	0.36056868	-154.76323	
3.57	0.40083227	-179.69654	4.5477835	114.91462	0.0079533521	-127.07138	0.35717847	-155.28644	
3.59	0.38417626	176.57022	4.6588745	112.5579	0.008190389	-129.0201	0.35390868	-155.81968	
3.61	0.36787168	172.78004	4.7691266	110.20936	0.0084258524	-130.96064	0.350632	-156.3605	
3.63	0.35179093	168.68159	4.8756852	107.84001	0.0086835421	-133.42599	0.34744437	-156.89856	
3.65	0.33613156	164.51682	4.9814151	105.48036	0.0089395603	-135.88164	0.34424212	-157.44334	
3.67	0.32096346	160.14093	5.0837651	103.1257	0.0092153806	-138.1383	0.34110186	-157.99728	
3.69	0.30633388	155.55174	5.1827649	100.77691	0.009510904	-140.19509	0.33802514	-158.56026	
3.71	0.29220522	150.88903	5.2810814	98.439367	0.0098047802	-142.24063	0.3349353	-159.12896	
3.73	0.27950007	145.79541	5.3741054	96.100881	0.010076064	-143.90312	0.33208565	-159.72073	
3.75	0.26734492	140.64299	5.4665749	93.774612	0.010345953	-145.55339	0.3292292	-160.31734	
3.77	0.25642117	135.23303	5.5540952	91.477762	0.010596311	-147.48024	0.32632045	-160.91701	
3.79	0.2467357	129.5949	5.6367419	89.210942	0.010827331	-149.68306	0.32335964	-161.51828	
3.81	0.2375625	123.9489	5.7191366	86.956803	0.01105759	-151.8732	0.32039424	-162.12162	
3.83	0.23069445	117.86542	5.7945356	84.708512	0.011312253	-153.74549	0.31754908	-162.75367	
3.85	0.22423963	111.85698	5.869896	82.473292	0.011566425	-155.60471	0.31470533	-163.38737	
3.87	0.2194332	105.70155	5.9413287	80.264294	0.011778503	-157.53371	0.31180676	-164.02319	
3.89	0.21615242	99.475575	6.0089112	78.082032	0.011948836	-159.53197	0.30886055	-164.66043	
3.91	0.21294824	93.445989	6.0768254	75.912245	0.012119697	-161.51776	0.30592954	-165.29664	
3.93	0.21289718	87.28309	6.1376072	73.785335	0.012314423	-163.57667	0.30308408	-165.94769	
3.95	0.21261065	81.392354	6.1988936	71.670331	0.012509903	-165.62367	0.30025888	-166.59738	
3.97	0.21379456	75.700043	6.256972	69.585672	0.012708654	-167.49433	0.29751449	-167.31822	
3.99	0.21629169	70.210103	6.3117922	67.531539	0.012910537	-169.18846	0.29485792	-168.11128	
4.01	0.21819408	64.969181	6.3673126	65.487313	0.013113577	-170.87269	0.29223512	-168.90362	
4.03	0.22250518	60.030419	6.4135752	63.500645	0.013281565	-172.69936	0.28949922	-169.5309	
4.05	0.22610816	55.263989	6.4605407	61.523199	0.013450805	-174.5168	0.28679943	-170.15589	
4.07	0.23045395	50.807175	6.5063431	59.567476	0.013638286	-176.33052	0.28398103	-170.79204	
4.09	0.23557642	46.593226	6.5508339	57.633874	0.013843631	-178.14013	0.28104639	-171.43937	
4.11	0.23998983	42.435266	6.5960464	55.708313	0.014050239	-179.94169	0.27815564	-172.08402	
4.13	0.24588338	38.833862	6.6341382	53.825018	0.014210886	178.73902	0.27513753	-172.73913	
4.15	0.25117938	35.217404	6.6728577	51.949237	0.014372713	177.42724	0.2721652	-173.39373	
4.17	0.25663585	31.87197	6.7097545	50.11166	0.014508107	175.97566	0.2691106	-174.0483	
4.19	0.26235817	28.776064	6.7447097	48.311956	0.014616886	174.38396	0.26597958	-174.70322	
4.21	0.26759784	25.631587	6.7803182	46.518338	0.014727027	172.79834	0.26290493	-175.35797	
4.23	0.27330869	22.951667	6.8117967	44.757293	0.014865659	171.36129	0.25999432	-176.07728	
4.25	0.27864266	20.219271	6.8438656	43.001267	0.015005484	169.92927	0.25714185	-176.79652	
4.27	0.28375491	17.644907	6.8747797	41.27517	0.015176354	168.34717	0.25438851	-177.49376	
4.29	0.28870775	15.23367	6.904468	39.578324	0.015378083	166.61432	0.25173754	-178.16768	
4.31	0.29336069	12.776558	6.934759	37.884888	0.015581038	164.88489	0.24915135	-178.83967	
4.33	0.29814864	10.674448	6.9606345	36.246862	0.015683606	163.83486	0.24650078	-179.47113	
4.35	0.30270828	8.5334185	6.9870398	34.611458	0.015787338	162.78746	0.2439037	179.89626	
4.37	0.30697766	6.4889379	7.0125481	32.995077	0.015890864	161.42708	0.24136658	179.27902	
4.39	0.31098679	4.5464676	7.0371055	31.397274	0.015994071	159.75327	0.23889703	178.67745	
4.41	0.31481011	2.5720512	7.0621722	29.801018	0.016098422	158.08102	0.23649249	178.07494	
4.43	0.31863325	0.80165472	7.086542	28.245529	0.016256709	156.86953	0.23404054	177.49175	
4.45	0.32230827	-0.99661819	7.111373	26.691164	0.016416044	155.65916	0.23164523	176.90772	
4.47	0.32583317	-2.7082832	7.134782	25.159096	0.016575453	154.3891	0.2293022	176.3291	
4.49	0.32922771	-4.3295816	7.1567182	23.649151	0.016734829	153.05915	0.22701251	175.75557	
4.51	0.33250541	-5.9741784	7.1790725	22.139758	0.0168952	151.72976	0.22478153	175.18058	
4.53	0.33525246	-7.4571192	7.2012539	20.669884	0.01703259	150.44388	0.22266417	174.64513	
4.55	0.33790354	-8.9598869	7.2237987	19.200161	0.017170869	149.15816	0.22060204	174.10755	
4.57	0.34041868	-10.413982	7.2455678	17.745203	0.01730143	147.9132	0.21854998	173.58205	
4.59	0.3428083	-11.817594	7.2665315	16.304925	0.017424205	146.70893	0.21650534	173.068	
4.61	0.34512285	-13.239978	7.2878167	14.864651	0.017547791	145.50465	0.21450966	172.55267	
4.63	0.3471602	-14.52615	7.307441	13.464496	0.017601062	144.3485	0.21271585	172.06668	
4.65	0.3491358	-15.827443	7.327349	12.063988	0.017655022	143.19199	0.21096651	171.57629	
4.67	0.35091549	-17.100477	7.3484797	10.671857	0.017746022	142.03786	0.20923728	171.09723	
4.69	0.3525034	-18.344503	7.3708125	9.2880289	0.017874054	140.88603	0.20752878	170.62991	
4.71	0.3540391	-19.603007	7.3934037	7.9035995	0.018002774	139.7336	0.20586496	170.15838	
4.73	0.35534295	-20.778773	7.4140491	6.551924	0.018182077	138.49792	0.20440911	169.72219	
4.75	0.35660019	-21.967717	7.4349209	5.1995394	0.018362054	137.26154	0.20299829	169.28197	
4.77	0.35767132	-23.110899	7.4549029	3.8631642	0.018490256	136.09716	0.20158059	168.83695	
4.79	0.35856352	-24.207	7.4739657	2.5428278	0.018566541	135.00483	0.20014915	168.38613	
4.81	0.35942255	-25.314715	7.4932126	1.2217206	0.018643311	133.91172	0.19875211	167.92953	
4.83	0.36018158	-26.367846	7.5149311	-0.074377741	0.018725917	132.89562	0.19774621	167.50306	
4.85	0.36091378	-27.431891	7.5368144	-1.3712978	0.018808964	131.8787	0.19677046	167.07221	
4.87	0.36140352	-28.481659	7.5583055	-2.6618739	0.018927566	130.80013	0.19571294	166.64936	
4.89	0.36164976	-29.516785	7.5793864	-3.9461327	0.019081739	129.65987	0.19457595	166.23347	
4.91	0.3618715	-30.562418	7.6006028	-5.2313107	0.019236366	128.51869	0.19347015	165.81144	
4.93	0.36186613	-31.523886	7.6197886	-6.4962592	0.019322335	127.41374	0.19266095	165.37794	
4.95	0.36184338	-32.494502	7.6390776	-7.7620688	0.019408607	126.30793	0.191875	164.9389	
4.97	0.36174347	-33.456797	7.6596017	-9.0153031	0.019492696	125.2067	0.19118015	164.51372	
4.99	0.36156858	-34.410412	7.681352	-10.255967	0.019574571	124.11003	0.19057376	164.10249	
5.01	0.36138276	-35.372831	7.7031879	-11.497523	0.019656695	123.01248	0.18998495	163.68585	
5.03	0.36089297	-36.306481	7.723533	-12.729747	0.019803862	122.10025	0.18938456	163.26835	
5.05	0.36039418	-37.249063	7.7439435	-13.962847	0.019951309	121.18715	0.18880195	162.84655	
5.07	0.35981217	-38.166276	7.7646828	-15.185649	0.020072499	120.18835	0.18836332	162.43437	
5.09	0.359149	-39.057116	7.7857371	-16.398109	0.020167349	119.10389	0.18806426	162.03154	
5.11	0.35848295	-39.955552	7.8068317	-17.611386	0.02026235	118.01861	0.1877747	161.62399	
5.13	0.35750577	-40.839101	7.8287606	-18.819217	0.020342583	116.97878	0.18749052	161.19234	
5.15	0.35652947	-41.730125	7.8507131	-20.027822	0.020422904	115.93818	0.18721227	160.75654	
5.17	0.35545721	-42.600023	7.8718416	-21.224205	0.020523126	114.9258	0.18705977	160.3258	
5.19	0.35428901	-43.448385	7.8921336	-22.408315	0.020643254	113.94169	0.18703252	159.90112	
5.21	0.35312492	-44.3036	7.9124269	-23.593117	0.020763459	112.95688	0.18700798	159.47362	
5.23	0.3517655	-45.143185	7.9347244	-24.779557	0.020847411	112.15044	0.18692414	159.03359	
5.25	0.35041458	-45.989783	7.9570146	-25.966624	0.020931371	111.34338	0.18683996	158.59205	
5.27	0.3489155	-46.83235	7.9784039	-27.141536	0.021030292	110.38846	0.18689632	158.14314	
5.29	0.34726884	-47.670163	7.9988736	-28.304229	0.02114415	109.28577	0.1870899	157.68667	
5.31	0.34564195	-48.514531	8.0192845	-29.46719	0.021257913	108.18281	0.18727043	157.23125	
5.33	0.34397925	-49.328634	8.0413228	-30.623617	0.021370977	107.22638	0.18759822	156.77387	
5.35	0.34233112	-50.148471	8.0633225	-31.780504	0.02148399	106.2695	0.18791764	156.31634	
5.37	0.34057089	-50.966886	8.0850398	-32.934364	0.02158545	105.27964	0.18821106	155.84659	
5.39	0.33870047	-51.783674	8.106467	-34.085146	0.02167532	104.25685	0.18847611	155.36477	
5.41	0.33685045	-52.60582	8.1278417	-35.236278	0.021765079	103.23372	0.18872694	154.88326	
5.43	0.3347899	-53.404531	8.1498465	-36.378012	0.02188381	102.28799	0.18925395	154.3866	
5.45	0.33275033	-54.208291	8.1717875	-37.520006	0.022002416	101.34199	0.18976565	153.89181	
5.47	0.33058803	-55.004769	8.1928671	-38.656839	0.022101166	100.45716	0.190249	153.40206	
5.49	0.32830455	-55.794112	8.2130798	-39.788454	0.022180021	99.633546	0.19070296	152.91815	
5.51	0.32604675	-56.588556	8.2332192	-40.920218	0.022258694	98.809782	0.19113805	152.43725	
5.53	0.32368029	-57.378403	8.2558836	-42.045314	0.022339797	97.824686	0.19171944	151.93537	
5.55	0.32134255	-58.172672	8.2784686	-43.170477	0.022420697	96.839523	0.1922774	151.43668	
5.57	0.31893539	-58.959536	8.3001367	-44.294336	0.022522311	95.873664	0.19288262	150.90255	
5.59	0.31645758	-59.738664	8.3208843	-45.416826	0.022644645	94.927174	0.19353592	150.33375	
5.61	0.31401045	-60.521664	8.3415457	-46.539232	0.022766776	93.980768	0.19416386	149.76955	
5.63	0.31126422	-61.264038	8.3639217	-47.646874	0.022818461	93.021126	0.19482869	149.21033	
5.65	0.30855219	-62.009967	8.3862084	-48.754317	0.022869899	92.061683	0.19546443	148.65675	
5.67	0.30584165	-62.772092	8.4080165	-49.862169	0.022932976	91.183831	0.19613562	148.08349	
5.69	0.30313241	-63.550847	8.4293432	-50.9704	0.02300769	90.3876	0.1968435	147.49143	
5.71	0.30045961	-64.333595	8.450578	-52.078341	0.023082158	89.591659	0.19752184	146.90625	
5.73	0.29748485	-65.111247	8.4708399	-53.191068	0.023171457	88.582932	0.19818362	146.32011	
5.75	0.29454968	-65.892018	8.4910047	-54.303416	0.023260497	87.574584	0.19881059	145.74005	
5.77	0.29158176	-66.653631	8.5117197	-55.407634	0.023349635	86.682366	0.19946822	145.14174	
5.79	0.28857892	-67.396165	8.5329873	-56.503659	0.023438876	85.906341	0.20015859	144.52614	
5.81	0.28561444	-68.141752	8.5541647	-57.599189	0.02352787	85.130811	0.20081544	143.91776	
5.83	0.2824739	-68.91392	8.5752552	-58.691721	0.02357825	84.138279	0.20150202	143.2942	
5.85	0.27937757	-69.688937	8.5962525	-59.783683	0.023628374	83.146317	0.20214962	142.67825	
5.87	0.27613008	-70.455263	8.6171941	-60.877708	0.023724798	82.252292	0.20285119	142.04437	
5.89	0.27272692	-71.212704	8.6380776	-61.973744	0.023867506	81.456256	0.20360878	141.39218	
5.91	0.26936478	-71.972536	8.658869	-63.069075	0.024009945	80.660925	0.20432764	140.74714	
5.93	0.26597545	-72.701009	8.6784305	-64.155372	0.02403354	79.646628	0.20493095	140.0618	
5.95	0.26263322	-73.431539	8.6979133	-65.24089	0.024056925	78.63311	0.20549098	139.3852	
5.97	0.25922238	-74.172734	8.716902	-66.326067	0.024096689	77.701933	0.20602499	138.70823	
5.99	0.25574687	-74.924905	8.735393	-67.410674	0.024152816	76.853326	0.20652976	138.03192	